/*--------------------------------*- C++ -*----------------------------------*\
  =========                 |
  \\      /  F ield         | OpenFOAM: The Open Source CFD Toolbox
   \\    /   O peration     | Website:  https://openfoam.org
    \\  /    A nd           | Version:  8
     \\/     M anipulation  |
\*---------------------------------------------------------------------------*/
FoamFile
{
    version     2.0;
    format      ascii;
    class       volScalarField;
    location    "5000";
    object      p;
}
// * * * * * * * * * * * * * * * * * * * * * * * * * * * * * * * * * * * * * //

dimensions      [1 -1 -2 0 0 0 0];

internalField   nonuniform List<scalar> 
12800
(
397.73
397.73
397.731
397.732
397.734
397.736
397.738
397.741
397.744
397.748
397.751
397.755
397.76
397.764
397.769
397.774
397.779
397.784
397.789
397.795
397.8
397.806
397.811
397.817
397.823
397.829
397.834
397.84
397.846
397.851
397.857
397.862
397.868
397.873
397.878
397.884
397.889
397.893
397.898
397.903
397.907
397.911
397.916
397.92
397.923
397.927
397.93
397.934
397.937
397.94
397.942
397.945
397.947
397.95
397.952
397.953
397.955
397.957
397.958
397.959
397.96
397.961
397.961
397.962
397.962
397.962
397.962
397.962
397.962
397.961
397.961
397.96
397.959
397.958
397.957
397.956
397.954
397.953
397.951
397.95
396.485
396.485
396.486
396.488
396.49
396.492
396.495
396.498
396.502
396.506
396.51
396.515
396.52
396.525
396.53
396.536
396.542
396.548
396.554
396.56
396.566
396.573
396.579
396.586
396.593
396.599
396.606
396.613
396.619
396.626
396.632
396.639
396.645
396.651
396.657
396.663
396.669
396.675
396.68
396.685
396.691
396.696
396.7
396.705
396.71
396.714
396.718
396.722
396.725
396.729
396.732
396.735
396.738
396.74
396.743
396.745
396.747
396.749
396.75
396.752
396.753
396.754
396.755
396.755
396.756
396.756
396.756
396.756
396.756
396.755
396.755
396.754
396.753
396.752
396.751
396.75
396.748
396.747
396.745
396.743
395.219
395.219
395.221
395.223
395.225
395.228
395.232
395.236
395.241
395.246
395.251
395.257
395.264
395.27
395.277
395.284
395.292
395.3
395.308
395.316
395.324
395.332
395.341
395.349
395.358
395.367
395.375
395.384
395.392
395.401
395.409
395.418
395.426
395.434
395.442
395.449
395.457
395.464
395.471
395.478
395.485
395.492
395.498
395.504
395.51
395.515
395.521
395.526
395.531
395.535
395.539
395.543
395.547
395.551
395.554
395.557
395.56
395.562
395.564
395.566
395.568
395.569
395.571
395.572
395.572
395.573
395.573
395.573
395.573
395.573
395.572
395.571
395.57
395.569
395.568
395.567
395.565
395.563
395.561
395.559
393.925
393.926
393.928
393.93
393.934
393.938
393.943
393.949
393.955
393.962
393.97
393.978
393.987
393.996
394.006
394.016
394.026
394.037
394.048
394.059
394.07
394.082
394.094
394.105
394.117
394.129
394.141
394.153
394.165
394.177
394.188
394.2
394.211
394.222
394.233
394.244
394.254
394.265
394.275
394.284
394.294
394.303
394.312
394.32
394.328
394.336
394.343
394.351
394.357
394.364
394.37
394.375
394.381
394.386
394.39
394.394
394.398
394.402
394.405
394.408
394.41
394.413
394.414
394.416
394.417
394.418
394.419
394.419
394.419
394.419
394.418
394.417
394.416
394.415
394.413
394.412
394.41
394.407
394.405
394.402
392.594
392.595
392.597
392.601
392.606
392.612
392.619
392.627
392.636
392.646
392.657
392.669
392.681
392.694
392.708
392.722
392.737
392.752
392.768
392.784
392.8
392.817
392.834
392.851
392.868
392.885
392.902
392.919
392.936
392.953
392.969
392.986
393.002
393.018
393.034
393.049
393.065
393.079
393.094
393.108
393.121
393.134
393.147
393.159
393.171
393.182
393.193
393.203
393.213
393.222
393.231
393.239
393.247
393.254
393.261
393.267
393.272
393.277
393.282
393.286
393.29
393.293
393.296
393.298
393.3
393.302
393.303
393.303
393.303
393.303
393.303
393.302
393.3
393.299
393.297
393.294
393.292
393.289
393.286
393.282
391.208
391.21
391.214
391.219
391.226
391.235
391.245
391.257
391.27
391.284
391.3
391.317
391.335
391.354
391.374
391.394
391.416
391.438
391.461
391.484
391.507
391.532
391.556
391.581
391.605
391.63
391.655
391.68
391.705
391.729
391.754
391.778
391.802
391.825
391.848
391.871
391.893
391.914
391.935
391.956
391.976
391.995
392.013
392.031
392.048
392.065
392.08
392.095
392.11
392.123
392.136
392.148
392.159
392.17
392.179
392.188
392.197
392.204
392.211
392.217
392.222
392.227
392.231
392.234
392.237
392.239
392.241
392.242
392.242
392.242
392.241
392.24
392.238
392.235
392.232
392.229
392.225
392.221
392.217
392.212
389.745
389.747
389.753
389.761
389.771
389.783
389.798
389.815
389.834
389.855
389.878
389.902
389.928
389.956
389.985
390.015
390.046
390.078
390.111
390.145
390.18
390.215
390.251
390.287
390.323
390.36
390.396
390.433
390.469
390.506
390.541
390.577
390.612
390.647
390.681
390.714
390.747
390.779
390.81
390.84
390.869
390.897
390.925
390.951
390.977
391.001
391.024
391.046
391.067
391.087
391.106
391.123
391.14
391.155
391.169
391.182
391.194
391.205
391.215
391.224
391.231
391.238
391.244
391.248
391.252
391.255
391.257
391.258
391.258
391.258
391.256
391.254
391.251
391.247
391.243
391.238
391.232
391.226
391.219
391.211
388.169
388.173
388.181
388.192
388.207
388.225
388.246
388.27
388.298
388.328
388.361
388.396
388.434
388.474
388.515
388.559
388.605
388.652
388.7
388.75
388.8
388.852
388.904
388.957
389.011
389.065
389.119
389.172
389.226
389.28
389.333
389.386
389.438
389.49
389.54
389.59
389.638
389.686
389.732
389.777
389.821
389.863
389.904
389.943
389.981
390.017
390.052
390.084
390.115
390.145
390.172
390.198
390.222
390.245
390.266
390.285
390.302
390.318
390.332
390.344
390.355
390.364
390.372
390.378
390.383
390.386
390.388
390.389
390.389
390.387
390.384
390.38
390.374
390.368
390.361
390.353
390.343
390.333
390.322
390.311
386.432
386.438
386.449
386.465
386.485
386.511
386.541
386.576
386.615
386.658
386.705
386.755
386.809
386.867
386.927
386.99
387.055
387.124
387.194
387.266
387.34
387.415
387.492
387.57
387.648
387.728
387.808
387.888
387.968
388.047
388.127
388.206
388.284
388.361
388.437
388.512
388.585
388.656
388.726
388.794
388.86
388.924
388.986
389.045
389.102
389.156
389.208
389.257
389.304
389.348
389.389
389.428
389.463
389.496
389.527
389.554
389.58
389.602
389.622
389.639
389.654
389.666
389.676
389.684
389.689
389.693
389.694
389.693
389.69
389.685
389.679
389.671
389.661
389.65
389.637
389.622
389.607
389.59
389.572
389.552
384.467
384.475
384.49
384.512
384.541
384.576
384.618
384.666
384.721
384.781
384.846
384.917
384.993
385.074
385.159
385.249
385.342
385.439
385.54
385.644
385.751
385.86
385.972
386.085
386.201
386.318
386.436
386.554
386.674
386.793
386.912
387.031
387.149
387.266
387.382
387.495
387.607
387.717
387.824
387.929
388.03
388.129
388.224
388.315
388.403
388.486
388.566
388.642
388.713
388.78
388.843
388.901
388.955
389.004
389.049
389.089
389.126
389.158
389.186
389.209
389.229
389.244
389.256
389.265
389.269
389.27
389.268
389.263
389.254
389.243
389.228
389.212
389.192
389.171
389.147
389.121
389.093
389.063
389.031
388.998
382.187
382.197
382.217
382.246
382.284
382.332
382.388
382.453
382.526
382.607
382.696
382.792
382.895
383.006
383.123
383.246
383.376
383.512
383.653
383.799
383.951
384.107
384.267
384.431
384.599
384.77
384.944
385.119
385.297
385.476
385.657
385.837
386.017
386.197
386.376
386.553
386.728
386.9
387.069
387.234
387.395
387.552
387.703
387.848
387.988
388.121
388.248
388.368
388.48
388.586
388.684
388.774
388.858
388.933
389.001
389.061
389.115
389.16
389.199
389.23
389.255
389.273
389.285
389.29
389.289
389.283
389.271
389.253
389.231
389.204
389.173
389.138
389.098
389.055
389.009
388.959
388.907
388.852
388.795
388.736
379.487
379.499
379.524
379.561
379.609
379.669
379.741
379.823
379.916
380.019
380.133
380.257
380.39
380.534
380.687
380.85
381.022
381.203
381.393
381.591
381.798
382.013
382.235
382.466
382.704
382.948
383.199
383.456
383.719
383.987
384.259
384.535
384.814
385.095
385.377
385.66
385.942
386.222
386.499
386.772
387.04
387.301
387.554
387.799
388.033
388.257
388.469
388.669
388.857
389.031
389.192
389.339
389.472
389.592
389.698
389.79
389.869
389.935
389.988
390.028
390.055
390.071
390.075
390.068
390.051
390.023
389.986
389.94
389.885
389.822
389.752
389.674
389.591
389.501
389.407
389.308
389.205
389.098
388.988
388.876
376.26
376.275
376.303
376.346
376.402
376.471
376.554
376.65
376.758
376.88
377.014
377.161
377.32
377.492
377.676
377.873
378.083
378.306
378.542
378.791
379.053
379.328
379.617
379.919
380.235
380.566
380.91
381.268
381.641
382.027
382.428
382.843
383.27
383.711
384.164
384.629
385.103
385.584
386.072
386.562
387.053
387.539
388.014
388.473
388.914
389.333
389.73
390.102
390.45
390.77
391.065
391.332
391.572
391.784
391.969
392.127
392.258
392.362
392.44
392.492
392.518
392.521
392.499
392.455
392.388
392.301
392.193
392.067
391.923
391.762
391.585
391.395
391.193
390.979
390.756
390.525
390.288
390.047
389.804
389.562
372.426
372.441
372.47
372.514
372.572
372.644
372.729
372.828
372.941
373.067
373.206
373.359
373.526
373.706
373.901
374.109
374.332
374.57
374.824
375.093
375.379
375.682
376.003
376.343
376.703
377.084
377.488
377.917
378.372
378.855
379.37
379.919
380.505
381.133
381.806
382.531
383.314
384.161
385.082
386.474
388.558
390.735
392.878
394.964
396.984
398.933
400.803
402.587
404.277
405.865
407.342
408.701
409.933
411.032
411.991
412.806
413.473
413.988
414.35
414.558
414.612
414.513
414.262
413.862
413.316
412.629
411.807
410.857
409.784
408.597
407.303
405.909
404.422
402.851
401.202
399.482
397.697
395.854
393.957
392.012
367.967
367.98
368.007
368.046
368.098
368.162
368.239
368.327
368.427
368.539
368.663
368.798
368.945
369.103
369.273
369.454
369.647
369.851
370.067
370.295
370.534
370.785
371.048
371.323
371.61
371.909
372.219
372.542
372.876
373.221
373.577
373.944
374.32
374.705
375.098
375.496
375.898
376.301
376.776
383.459
391.836
399.603
406.656
413.033
418.783
423.951
428.58
432.709
436.37
439.594
442.407
444.834
446.894
448.605
449.983
451.042
451.792
452.244
452.406
452.284
451.886
451.214
450.273
449.063
447.587
445.843
443.831
441.549
438.993
436.16
433.044
429.64
425.94
421.936
417.619
412.977
408
402.673
396.982
390.913
362.946
362.956
362.977
363.008
363.049
363.1
363.159
363.228
363.306
363.393
363.488
363.591
363.703
363.822
363.95
364.085
364.227
364.376
364.532
364.695
364.864
365.039
365.22
365.406
365.597
365.794
365.994
366.198
366.406
366.616
366.828
367.043
367.258
367.473
367.688
367.902
368.113
368.323
369.299
376.685
384.306
391.434
397.995
404.009
409.502
414.498
419.021
423.093
426.735
429.966
432.803
435.264
437.363
439.113
440.528
441.618
442.393
442.863
443.036
442.919
442.519
441.842
440.893
439.676
438.194
436.452
434.451
432.194
429.682
426.919
423.903
420.638
417.123
413.36
409.349
405.092
400.59
395.844
390.857
385.63
357.481
357.489
357.503
357.525
357.554
357.589
357.63
357.678
357.732
357.791
357.856
357.926
358.001
358.08
358.164
358.253
358.345
358.44
358.539
358.64
358.745
358.851
358.959
359.068
359.179
359.29
359.4
359.511
359.621
359.729
359.835
359.938
360.039
360.135
360.227
360.314
360.395
360.471
360.96
364.941
370.911
376.848
382.402
387.558
392.324
396.71
400.726
404.382
407.689
410.657
413.295
415.614
417.622
419.329
420.744
421.875
422.729
423.315
423.64
423.711
423.534
423.117
422.466
421.587
420.485
419.166
417.636
415.9
413.964
411.832
409.511
407.006
404.322
401.465
398.44
395.254
391.913
388.423
384.791
381.024
351.705
351.71
351.719
351.733
351.751
351.772
351.798
351.828
351.861
351.897
351.936
351.978
352.023
352.07
352.119
352.17
352.223
352.277
352.332
352.387
352.443
352.5
352.556
352.611
352.666
352.719
352.772
352.822
352.87
352.916
352.958
352.998
353.034
353.066
353.094
353.117
353.136
353.149
353.181
354.109
358.192
363.119
367.817
372.207
376.292
380.078
383.571
386.778
389.705
392.359
394.746
396.873
398.747
400.375
401.762
402.915
403.84
404.544
405.033
405.313
405.391
405.271
404.961
404.466
403.792
402.944
401.928
400.751
399.416
397.93
396.299
394.528
392.623
390.589
388.432
386.158
383.772
381.28
378.687
376.001
345.733
345.736
345.741
345.748
345.758
345.77
345.784
345.8
345.818
345.837
345.858
345.88
345.903
345.927
345.952
345.977
346.003
346.029
346.054
346.08
346.105
346.129
346.152
346.175
346.196
346.215
346.233
346.249
346.262
346.274
346.283
346.289
346.292
346.292
346.289
346.283
346.273
346.26
346.243
346.249
348.012
351.972
355.953
359.699
363.205
366.475
369.512
372.321
374.907
377.274
379.426
381.369
383.107
384.646
385.989
387.143
388.111
388.9
389.513
389.956
390.234
390.352
390.314
390.126
389.793
389.319
388.708
387.966
387.097
386.107
384.998
383.776
382.446
381.012
379.477
377.847
376.126
374.318
372.427
370.458
339.653
339.654
339.656
339.66
339.664
339.669
339.676
339.683
339.69
339.699
339.707
339.716
339.726
339.735
339.745
339.754
339.763
339.772
339.78
339.787
339.794
339.8
339.805
339.809
339.811
339.812
339.812
339.809
339.806
339.8
339.792
339.783
339.771
339.757
339.74
339.721
339.7
339.676
339.649
339.636
339.937
342.843
346.269
349.524
352.585
355.455
358.136
360.633
362.948
365.085
367.047
368.838
370.461
371.921
373.221
374.365
375.357
376.201
376.901
377.461
377.885
378.177
378.34
378.379
378.298
378.101
377.792
377.373
376.85
376.226
375.504
374.689
373.783
372.791
371.716
370.56
369.329
368.025
366.654
365.22
333.523
333.523
333.524
333.525
333.526
333.527
333.529
333.53
333.532
333.533
333.535
333.537
333.538
333.539
333.54
333.54
333.54
333.539
333.538
333.536
333.533
333.529
333.525
333.52
333.514
333.506
333.498
333.488
333.478
333.466
333.453
333.439
333.423
333.406
333.388
333.369
333.348
333.326
333.303
333.287
333.282
334.936
337.938
340.842
343.584
346.167
348.593
350.863
352.981
354.949
356.771
358.448
359.986
361.385
362.65
363.784
364.79
365.671
366.431
367.073
367.599
368.014
368.321
368.523
368.624
368.626
368.533
368.348
368.075
367.716
367.275
366.754
366.157
365.488
364.748
363.941
363.07
362.14
361.16
360.149
327.38
327.38
327.379
327.379
327.378
327.377
327.376
327.374
327.373
327.371
327.368
327.366
327.363
327.359
327.355
327.351
327.346
327.341
327.335
327.328
327.321
327.313
327.304
327.295
327.285
327.274
327.263
327.251
327.238
327.225
327.21
327.195
327.18
327.163
327.147
327.129
327.111
327.092
327.073
327.056
327.04
327.635
330.291
332.969
335.506
337.902
340.158
342.278
344.264
346.119
347.845
349.445
350.922
352.279
353.518
354.643
355.656
356.559
357.357
358.05
358.644
359.139
359.54
359.848
360.067
360.2
360.249
360.216
360.106
359.919
359.66
359.33
358.932
358.468
357.942
357.356
356.715
356.029
355.327
354.678
321.244
321.244
321.243
321.241
321.24
321.238
321.235
321.232
321.229
321.225
321.221
321.216
321.211
321.205
321.199
321.192
321.185
321.177
321.169
321.16
321.151
321.141
321.13
321.119
321.107
321.095
321.083
321.069
321.055
321.041
321.026
321.011
320.995
320.978
320.962
320.944
320.927
320.909
320.89
320.872
320.857
320.983
323.219
325.725
328.11
330.367
332.5
334.51
336.4
338.171
339.827
341.37
342.801
344.125
345.342
346.456
347.468
348.382
349.2
349.924
350.557
351.1
351.558
351.931
352.223
352.435
352.571
352.632
352.621
352.54
352.391
352.177
351.9
351.563
351.167
350.719
350.23
349.742
349.367
349.334
315.126
315.126
315.125
315.123
315.121
315.118
315.115
315.111
315.107
315.103
315.098
315.092
315.086
315.079
315.072
315.064
315.056
315.047
315.038
315.029
315.018
315.008
314.996
314.985
314.972
314.959
314.946
314.932
314.918
314.903
314.887
314.871
314.855
314.837
314.82
314.801
314.782
314.763
314.743
314.722
314.711
314.717
316.39
318.781
321.069
323.24
325.296
327.238
329.068
330.789
332.402
333.91
335.316
336.62
337.826
338.935
339.949
340.872
341.704
342.449
343.107
343.682
344.176
344.589
344.925
345.186
345.373
345.488
345.534
345.512
345.424
345.272
345.058
344.785
344.457
344.089
343.735
343.565
343.85
344.629
309.032
309.031
309.03
309.028
309.026
309.023
309.02
309.016
309.012
309.007
309.002
308.996
308.99
308.983
308.976
308.968
308.96
308.951
308.942
308.932
308.922
308.912
308.901
308.89
308.878
308.865
308.853
308.839
308.826
308.811
308.797
308.782
308.766
308.75
308.733
308.716
308.698
308.679
308.66
308.641
308.631
308.626
309.645
311.969
314.219
316.356
318.382
320.299
322.109
323.815
325.418
326.921
328.326
329.634
330.848
331.97
333.003
333.947
334.805
335.579
336.271
336.883
337.417
337.874
338.257
338.567
338.806
338.976
339.078
339.115
339.088
338.999
338.85
338.647
338.407
338.2
338.245
338.774
339.685
340.783
302.961
302.96
302.959
302.958
302.956
302.953
302.95
302.946
302.942
302.937
302.932
302.927
302.921
302.915
302.908
302.901
302.893
302.885
302.877
302.868
302.859
302.85
302.84
302.83
302.819
302.808
302.797
302.786
302.774
302.762
302.75
302.738
302.725
302.712
302.699
302.686
302.673
302.659
302.646
302.633
302.623
302.616
303.117
305.378
307.618
309.75
311.775
313.694
315.51
317.226
318.843
320.363
321.788
323.121
324.363
325.517
326.584
327.567
328.467
329.286
330.026
330.689
331.277
331.791
332.234
332.607
332.912
333.151
333.325
333.435
333.485
333.477
333.416
333.324
333.286
333.536
334.24
335.219
336.281
337.35
296.914
296.913
296.912
296.911
296.909
296.906
296.903
296.9
296.896
296.892
296.888
296.883
296.877
296.872
296.866
296.859
296.852
296.845
296.838
296.83
296.822
296.814
296.805
296.796
296.787
296.778
296.768
296.758
296.748
296.738
296.727
296.717
296.706
296.695
296.684
296.673
296.662
296.651
296.64
296.629
296.619
296.614
296.847
299.005
301.254
303.399
305.44
307.38
309.221
310.964
312.611
314.165
315.628
317.001
318.287
319.486
320.602
321.636
322.591
323.467
324.266
324.991
325.644
326.225
326.737
327.182
327.561
327.876
328.128
328.32
328.455
328.539
328.598
328.724
329.145
329.971
330.997
332.055
333.079
334.048
290.888
290.887
290.886
290.885
290.883
290.881
290.879
290.876
290.872
290.869
290.865
290.86
290.856
290.85
290.845
290.839
290.833
290.827
290.821
290.814
290.807
290.799
290.792
290.784
290.776
290.767
290.759
290.75
290.741
290.731
290.722
290.712
290.702
290.692
290.681
290.67
290.66
290.648
290.637
290.625
290.613
290.611
290.725
292.708
294.987
297.17
299.251
301.234
303.118
304.908
306.604
308.209
309.725
311.153
312.495
313.754
314.931
316.027
317.046
317.988
318.855
319.65
320.373
321.027
321.613
322.133
322.589
322.982
323.315
323.59
323.817
324.021
324.298
324.86
325.781
326.856
327.934
328.957
329.907
330.775
284.88
284.88
284.879
284.878
284.877
284.875
284.873
284.87
284.867
284.864
284.861
284.857
284.853
284.849
284.844
284.839
284.834
284.829
284.823
284.817
284.811
284.805
284.798
284.791
284.784
284.777
284.77
284.762
284.754
284.746
284.738
284.729
284.721
284.712
284.703
284.693
284.683
284.673
284.663
284.652
284.641
284.639
284.697
286.391
288.725
290.968
293.112
295.157
297.106
298.96
300.722
302.394
303.977
305.474
306.886
308.215
309.463
310.633
311.724
312.74
313.682
314.553
315.352
316.083
316.747
317.346
317.881
318.355
318.772
319.139
319.487
319.91
320.598
321.606
322.741
323.862
324.914
325.879
326.75
327.527
278.89
278.889
278.889
278.888
278.886
278.885
278.883
278.881
278.879
278.876
278.873
278.87
278.866
278.863
278.859
278.855
278.851
278.846
278.842
278.837
278.832
278.827
278.821
278.816
278.811
278.805
278.799
278.793
278.787
278.781
278.775
278.769
278.763
278.757
278.751
278.745
278.739
278.733
278.728
278.722
278.717
278.715
278.743
280.038
282.436
284.759
286.982
289.106
291.135
293.069
294.911
296.662
298.326
299.902
301.395
302.804
304.133
305.383
306.556
307.653
308.677
309.629
310.511
311.324
312.071
312.752
313.372
313.933
314.446
314.941
315.509
316.322
317.42
318.631
319.818
320.927
321.939
322.844
323.644
324.339
272.913
272.912
272.912
272.911
272.91
272.909
272.907
272.905
272.903
272.901
272.899
272.896
272.893
272.89
272.887
272.884
272.88
272.877
272.873
272.869
272.865
272.861
272.856
272.852
272.847
272.843
272.838
272.833
272.828
272.823
272.818
272.814
272.809
272.804
272.799
272.794
272.789
272.784
272.78
272.775
272.771
272.768
272.781
273.649
276.114
278.531
280.848
283.065
285.186
287.211
289.143
290.984
292.737
294.402
295.983
297.48
298.897
300.234
301.494
302.678
303.788
304.827
305.795
306.694
307.528
308.298
309.009
309.672
310.319
311.036
311.975
313.171
314.471
315.745
316.935
318.022
318.996
319.853
320.594
321.22
266.947
266.947
266.946
266.946
266.945
266.944
266.943
266.941
266.939
266.938
266.936
266.934
266.931
266.929
266.926
266.923
266.92
266.917
266.914
266.911
266.908
266.904
266.9
266.896
266.892
266.888
266.884
266.88
266.875
266.871
266.866
266.861
266.856
266.851
266.846
266.84
266.834
266.828
266.822
266.815
266.808
266.801
266.809
267.323
269.823
272.339
274.753
277.067
279.283
281.403
283.428
285.362
287.207
288.963
290.635
292.222
293.728
295.154
296.502
297.774
298.973
300.099
301.154
302.142
303.065
303.929
304.744
305.545
306.413
307.482
308.785
310.186
311.561
312.852
314.037
315.106
316.053
316.877
317.575
318.15
260.991
260.991
260.99
260.99
260.989
260.988
260.987
260.986
260.985
260.983
260.982
260.98
260.978
260.976
260.974
260.972
260.97
260.967
260.965
260.962
260.959
260.957
260.954
260.951
260.948
260.944
260.941
260.938
260.934
260.931
260.927
260.923
260.919
260.915
260.911
260.907
260.903
260.898
260.893
260.888
260.883
260.878
260.883
261.161
263.618
266.223
268.729
271.134
273.441
275.651
277.766
279.79
281.723
283.568
285.328
287.003
288.596
290.109
291.543
292.902
294.186
295.398
296.54
297.616
298.632
299.601
300.556
301.577
302.782
304.2
305.712
307.202
308.609
309.91
311.093
312.154
313.088
313.894
314.568
315.109
255.042
255.042
255.042
255.041
255.041
255.04
255.039
255.038
255.037
255.036
255.035
255.034
255.032
255.031
255.029
255.028
255.026
255.024
255.022
255.021
255.019
255.017
255.015
255.012
255.01
255.008
255.006
255.004
255.002
255
254.998
254.996
254.994
254.992
254.991
254.989
254.988
254.986
254.985
254.985
254.984
254.984
254.987
255.129
257.414
260.104
262.699
265.194
267.589
269.888
272.093
274.205
276.226
278.159
280.005
281.767
283.446
285.044
286.564
288.007
289.376
290.673
291.903
293.073
294.196
295.31
296.487
297.836
299.38
301.015
302.63
304.166
305.596
306.909
308.1
309.164
310.099
310.901
311.568
312.094
249.099
249.099
249.099
249.099
249.098
249.098
249.097
249.096
249.096
249.095
249.094
249.093
249.092
249.091
249.09
249.088
249.087
249.086
249.084
249.083
249.081
249.08
249.078
249.077
249.075
249.074
249.072
249.071
249.069
249.068
249.066
249.065
249.063
249.062
249.061
249.06
249.059
249.058
249.058
249.057
249.057
249.057
249.058
249.127
251.057
253.84
256.536
259.13
261.624
264.021
266.321
268.527
270.641
272.666
274.602
276.453
278.22
279.906
281.513
283.043
284.5
285.888
287.215
288.499
289.776
291.12
292.624
294.307
296.077
297.83
299.506
301.077
302.532
303.865
305.072
306.151
307.099
307.912
308.586
309.112
243.161
243.161
243.161
243.16
243.16
243.16
243.159
243.159
243.158
243.157
243.157
243.156
243.155
243.154
243.153
243.152
243.151
243.15
243.149
243.148
243.147
243.145
243.144
243.143
243.141
243.14
243.138
243.137
243.135
243.133
243.132
243.13
243.128
243.126
243.123
243.121
243.119
243.116
243.113
243.11
243.106
243.102
243.098
243.128
244.523
247.402
250.215
252.922
255.526
258.028
260.432
262.739
264.952
267.073
269.104
271.048
272.907
274.684
276.381
278.003
279.555
281.047
282.498
283.949
285.471
287.145
288.984
290.902
292.803
294.629
296.352
297.958
299.444
300.804
302.038
303.142
304.114
304.95
305.642
306.182
237.226
237.226
237.226
237.225
237.225
237.225
237.225
237.224
237.224
237.223
237.223
237.222
237.222
237.221
237.22
237.219
237.219
237.218
237.217
237.216
237.215
237.214
237.213
237.212
237.211
237.21
237.209
237.208
237.206
237.205
237.204
237.203
237.201
237.2
237.198
237.197
237.195
237.194
237.192
237.19
237.189
237.187
237.185
237.195
238.019
240.958
243.88
246.695
249.403
252.007
254.511
256.915
259.223
261.438
263.561
265.596
267.545
269.413
271.204
272.924
274.588
276.216
277.853
279.566
281.428
283.438
285.517
287.577
289.563
291.445
293.213
294.859
296.381
297.777
299.046
300.184
301.189
302.056
302.778
303.341
231.293
231.293
231.293
231.293
231.293
231.293
231.293
231.292
231.292
231.292
231.291
231.291
231.29
231.29
231.289
231.289
231.288
231.288
231.287
231.287
231.286
231.286
231.285
231.284
231.284
231.283
231.282
231.282
231.281
231.281
231.28
231.279
231.279
231.278
231.278
231.278
231.277
231.277
231.277
231.277
231.277
231.277
231.278
231.28
231.692
234.602
237.616
240.523
243.322
246.016
248.607
251.099
253.493
255.794
258.003
260.125
262.164
264.126
266.02
267.862
269.679
271.516
273.44
275.507
277.706
279.962
282.193
284.349
286.402
288.34
290.158
291.851
293.42
294.863
296.178
297.363
298.414
299.326
300.09
300.693
225.363
225.363
225.363
225.363
225.363
225.362
225.362
225.362
225.362
225.362
225.361
225.361
225.361
225.361
225.36
225.36
225.36
225.359
225.359
225.358
225.358
225.358
225.357
225.357
225.357
225.356
225.356
225.356
225.355
225.355
225.355
225.354
225.354
225.354
225.354
225.353
225.353
225.353
225.353
225.353
225.353
225.354
225.354
225.355
225.543
228.266
231.357
234.344
237.224
239.998
242.669
245.24
247.715
250.096
252.389
254.6
256.735
258.809
260.839
262.858
264.915
267.071
269.364
271.77
274.216
276.63
278.967
281.2
283.318
285.315
287.191
288.943
290.571
292.074
293.451
294.699
295.815
296.793
297.624
298.29
219.434
219.434
219.433
219.433
219.433
219.433
219.433
219.433
219.433
219.433
219.433
219.432
219.432
219.432
219.432
219.432
219.431
219.431
219.431
219.431
219.43
219.43
219.43
219.43
219.43
219.429
219.429
219.429
219.429
219.428
219.428
219.428
219.428
219.427
219.427
219.426
219.425
219.425
219.424
219.423
219.421
219.42
219.418
219.416
219.498
221.79
224.956
228.028
230.99
233.846
236.597
239.249
241.806
244.273
246.658
248.972
251.232
253.463
255.702
258
260.407
262.941
265.564
268.208
270.808
273.324
275.733
278.024
280.192
282.236
284.155
285.949
287.618
289.162
290.58
291.869
293.027
294.047
294.92
295.63
213.505
213.505
213.505
213.505
213.505
213.505
213.505
213.505
213.505
213.504
213.504
213.504
213.504
213.504
213.504
213.503
213.503
213.503
213.503
213.503
213.503
213.503
213.503
213.503
213.503
213.503
213.503
213.503
213.503
213.504
213.504
213.504
213.505
213.505
213.506
213.507
213.508
213.509
213.51
213.511
213.513
213.515
213.517
213.52
213.55
215.163
218.401
221.572
224.632
227.584
230.432
233.183
235.844
238.426
240.946
243.425
245.895
248.399
250.983
253.681
256.486
259.351
262.211
265.012
267.719
270.312
272.781
275.124
277.338
279.424
281.382
283.213
284.918
286.497
287.95
289.275
290.469
291.528
292.441
293.195
207.578
207.578
207.578
207.577
207.577
207.577
207.577
207.577
207.577
207.576
207.576
207.576
207.576
207.575
207.575
207.575
207.575
207.575
207.574
207.574
207.574
207.574
207.574
207.574
207.574
207.574
207.574
207.574
207.574
207.574
207.574
207.575
207.575
207.576
207.577
207.577
207.578
207.579
207.58
207.581
207.583
207.584
207.586
207.588
207.594
208.501
211.801
215.105
218.299
221.387
224.378
227.283
230.118
232.905
235.674
238.462
241.312
244.256
247.304
250.426
253.568
256.675
259.702
262.622
265.421
268.09
270.626
273.03
275.301
277.442
279.454
281.339
283.098
284.732
286.242
287.627
288.886
290.014
291.003
291.84
201.651
201.651
201.651
201.651
201.651
201.651
201.65
201.65
201.65
201.649
201.649
201.648
201.648
201.647
201.647
201.646
201.646
201.645
201.645
201.644
201.644
201.643
201.643
201.642
201.642
201.641
201.641
201.641
201.64
201.64
201.64
201.639
201.639
201.639
201.639
201.638
201.638
201.638
201.638
201.638
201.637
201.637
201.637
201.636
201.635
202.06
205.353
208.846
212.245
215.553
218.788
221.97
225.129
228.301
231.522
234.821
238.209
241.665
245.147
248.602
251.986
255.267
258.425
261.449
264.335
267.08
269.683
272.147
274.473
276.662
278.717
280.64
282.433
284.097
285.633
287.044
288.327
289.482
290.502
291.377
195.728
195.728
195.727
195.727
195.727
195.726
195.726
195.725
195.724
195.724
195.723
195.722
195.721
195.72
195.719
195.718
195.717
195.716
195.715
195.714
195.713
195.712
195.71
195.709
195.708
195.707
195.707
195.706
195.705
195.704
195.703
195.702
195.702
195.701
195.7
195.7
195.699
195.698
195.698
195.697
195.696
195.695
195.694
195.692
195.691
195.87
198.975
202.81
206.597
210.334
214.048
217.77
221.533
225.36
229.253
233.196
237.149
241.07
244.917
248.659
252.276
255.755
259.089
262.273
265.307
268.19
270.923
273.508
275.945
278.236
280.384
282.388
284.253
285.978
287.565
289.016
290.332
291.512
292.554
293.452
189.808
189.808
189.808
189.807
189.807
189.806
189.805
189.804
189.803
189.801
189.8
189.798
189.797
189.795
189.793
189.791
189.789
189.788
189.786
189.784
189.782
189.78
189.778
189.776
189.774
189.772
189.77
189.769
189.767
189.766
189.764
189.763
189.762
189.762
189.761
189.761
189.761
189.762
189.763
189.764
189.766
189.769
189.772
189.776
189.78
189.842
192.239
196.691
201.213
205.739
210.291
214.883
219.512
224.16
228.793
233.375
237.874
242.263
246.525
250.647
254.624
258.451
262.127
265.65
269.022
272.243
275.313
278.234
281.007
283.633
286.113
288.448
290.639
292.687
294.594
296.36
297.985
299.471
300.816
302.019
183.896
183.896
183.895
183.894
183.893
183.892
183.891
183.889
183.887
183.885
183.882
183.88
183.877
183.875
183.872
183.868
183.865
183.862
183.859
183.855
183.851
183.848
183.844
183.84
183.837
183.833
183.829
183.825
183.821
183.818
183.814
183.811
183.807
183.804
183.801
183.798
183.795
183.793
183.791
183.789
183.787
183.786
183.785
183.785
183.785
183.788
184.836
189.946
195.508
201.084
206.65
212.189
217.676
223.083
228.387
233.57
238.619
243.527
248.288
252.902
257.368
261.686
265.859
269.887
273.772
277.517
281.124
284.595
287.93
291.134
294.207
297.151
299.968
302.661
305.229
307.676
310.003
312.211
314.303
316.283
177.995
177.994
177.994
177.992
177.991
177.989
177.987
177.984
177.982
177.978
177.975
177.971
177.967
177.963
177.959
177.954
177.949
177.944
177.938
177.933
177.927
177.921
177.915
177.908
177.902
177.895
177.888
177.881
177.874
177.867
177.86
177.852
177.844
177.837