/*--------------------------------*- C++ -*----------------------------------*\
  =========                 |
  \\      /  F ield         | OpenFOAM: The Open Source CFD Toolbox
   \\    /   O peration     | Website:  https://openfoam.org
    \\  /    A nd           | Version:  8
     \\/     M anipulation  |
\*---------------------------------------------------------------------------*/
FoamFile
{
    version     2.0;
    format      ascii;
    class       surfaceScalarField;
    location    "5000";
    object      phia;
}
// * * * * * * * * * * * * * * * * * * * * * * * * * * * * * * * * * * * * * //

dimensions      [0 3 -1 0 0 0 0];

internalField   nonuniform List<scalar> 
25360
(
-3.62917e-08
3.62917e-08
-7.21326e-08
3.5841e-08
-1.07399e-07
3.52666e-08
-1.41975e-07
3.45763e-08
-1.75753e-07
3.37775e-08
-2.08631e-07
3.28781e-08
-2.40517e-07
3.18857e-08
-2.71325e-07
3.0808e-08
-3.00977e-07
2.96525e-08
-3.29404e-07
2.84267e-08
-3.56542e-07
2.71381e-08
-3.82336e-07
2.57939e-08
-4.06737e-07
2.4401e-08
-4.29703e-07
2.29664e-08
-4.512e-07
2.14967e-08
-4.71198e-07
1.99982e-08
-4.89675e-07
1.84773e-08
-5.06615e-07
1.69397e-08
-5.22006e-07
1.53911e-08
-5.35842e-07
1.38369e-08
-5.48125e-07
1.22822e-08
-5.58857e-07
1.07319e-08
-5.68047e-07
9.1905e-09
-5.75709e-07
7.66223e-09
-5.8186e-07
6.1511e-09
-5.86521e-07
4.66083e-09
-5.89716e-07
3.19486e-09
-5.91472e-07
1.75633e-09
-5.9182e-07
3.48149e-10
-5.90793e-07
-1.02705e-09
-5.88426e-07
-2.36688e-09
-5.84757e-07
-3.66922e-09
-5.79825e-07
-4.93217e-09
-5.73671e-07
-6.15407e-09
-5.66337e-07
-7.33348e-09
-5.57868e-07
-8.46918e-09
-5.48308e-07
-9.56014e-09
-5.37702e-07
-1.06055e-08
-5.26098e-07
-1.16047e-08
-5.1354e-07
-1.25573e-08
-5.00077e-07
-1.34628e-08
-4.85756e-07
-1.43213e-08
-4.70623e-07
-1.51327e-08
-4.54726e-07
-1.58971e-08
-4.38111e-07
-1.66149e-08
-4.20825e-07
-1.72864e-08
-4.02913e-07
-1.7912e-08
-3.8442e-07
-1.84925e-08
-3.65392e-07
-1.90285e-08
-3.45871e-07
-1.95208e-08
-3.25901e-07
-1.99702e-08
-3.05523e-07
-2.03777e-08
-2.84779e-07
-2.07442e-08
-2.63708e-07
-2.10707e-08
-2.42349e-07
-2.13584e-08
-2.20741e-07
-2.16084e-08
-1.98919e-07
-2.18218e-08
-1.76919e-07
-2.19998e-08
-1.54776e-07
-2.21435e-08
-1.32522e-07
-2.22543e-08
-1.10188e-07
-2.23333e-08
-8.78064e-08
-2.23818e-08
-6.54053e-08
-2.2401e-08
-4.30131e-08
-2.23922e-08
-2.06565e-08
-2.23566e-08
1.63885e-09
-2.22954e-08
2.38487e-08
-2.22098e-08
4.59497e-08
-2.21011e-08
6.79201e-08
-2.19704e-08
8.9739e-08
-2.18189e-08
1.11387e-07
-2.16477e-08
1.32845e-07
-2.1458e-08
1.54096e-07
-2.12509e-08
1.75123e-07
-2.10275e-08
1.95912e-07
-2.07888e-08
2.16448e-07
-2.05357e-08
2.36717e-07
-2.02694e-08
2.56708e-07
-1.99908e-08
2.76409e-07
-1.97009e-08
-1.94004e-08
2.95809e-07
-4.19387e-08
7.82305e-08
-8.33578e-08
7.726e-08
-1.24116e-07
7.60245e-08
-1.64079e-07
7.454e-08
-2.03125e-07
7.28228e-08
-2.41136e-07
7.08895e-08
-2.78007e-07
6.87565e-08
-3.13639e-07
6.64403e-08
-3.47944e-07
6.3957e-08
-3.8084e-07
6.13228e-08
-4.12255e-07
5.85534e-08
-4.42125e-07
5.56643e-08
-4.70395e-07
5.26706e-08
-4.97016e-07
4.95869e-08
-5.21946e-07
4.64275e-08
-5.45154e-07
4.32062e-08
-5.66613e-07
3.99362e-08
-5.86304e-07
3.66301e-08
-6.04213e-07
3.33001e-08
-6.20334e-07
2.99579e-08
-6.34666e-07
2.66143e-08
-6.47214e-07
2.32798e-08
-6.57987e-07
1.99642e-08
-6.67002e-07
1.66767e-08
-6.74277e-07
1.34258e-08
-6.79835e-07
1.02197e-08
-6.83706e-07
7.06577e-09
-6.85921e-07
3.97079e-09
-6.86514e-07
9.41075e-10
-6.85523e-07
-2.01766e-09
-6.8299e-07
-4.90026e-09
-6.78957e-07
-7.70207e-09
-6.7347e-07
-1.0419e-08
-6.66577e-07
-1.30474e-08
-6.58326e-07
-1.55841e-08
-6.48769e-07
-1.80265e-08
-6.37957e-07
-2.03723e-08
-6.25943e-07
-2.26198e-08
-6.1278e-07
-2.47674e-08
-5.98523e-07
-2.68143e-08
-5.83226e-07
-2.87597e-08
-5.66944e-07
-3.06033e-08
-5.49732e-07
-3.23452e-08
-5.31643e-07
-3.39855e-08
-5.12733e-07
-3.5525e-08
-4.93055e-07
-3.69644e-08
-4.72662e-07
-3.83048e-08
-4.51607e-07
-3.95476e-08
-4.29942e-07
-4.06942e-08
-4.07716e-07
-4.17463e-08
-3.8498e-07
-4.27058e-08
-3.61783e-07
-4.35747e-08
-3.38172e-07
-4.43551e-08
-3.14194e-07
-4.50493e-08
-2.89893e-07
-4.56595e-08
-2.65313e-07
-4.61884e-08
-2.40496e-07
-4.66383e-08
-2.15484e-07
-4.70118e-08
-1.90316e-07
-4.73116e-08
-1.6503e-07
-4.75404e-08
-1.39663e-07
-4.77007e-08
-1.14249e-07
-4.77954e-08
-8.88233e-08
-4.7827e-08
-6.3417e-08
-4.77984e-08
-3.80613e-08
-4.77123e-08
-1.27855e-08
-4.75712e-08
1.23826e-08
-4.73779e-08
3.74164e-08
-4.71349e-08
6.2291e-08
-4.68449e-08
8.69825e-08
-4.65104e-08
1.11469e-07
-4.61339e-08
1.35729e-07
-4.57179e-08
1.59742e-07
-4.52647e-08
1.83492e-07
-4.47767e-08
2.06959e-07
-4.42562e-08
2.30129e-07
-4.37054e-08
2.52986e-07
-4.31265e-08
2.75516e-07
-4.25215e-08
2.97708e-07
-4.18925e-08
-4.12414e-08
3.19549e-07
-5.40573e-08
1.32288e-07
-1.07448e-07
1.3065e-07
-1.59991e-07
1.28568e-07
-2.11519e-07
1.26068e-07
-2.61873e-07
1.23177e-07
-3.10907e-07
1.19923e-07
-3.58484e-07
1.16334e-07
-4.04481e-07
1.12436e-07
-4.48781e-07
1.08258e-07
-4.91284e-07
1.03825e-07
-5.31895e-07
9.91649e-08
-5.70534e-07
9.43025e-08
-6.07126e-07
8.92633e-08
-6.41612e-07
8.4072e-08
-6.73936e-07
7.87523e-08
-7.04058e-07
7.33274e-08
-7.31941e-07
6.78193e-08
-7.5756e-07
6.22494e-08
-7.80898e-07
5.66381e-08
-8.01945e-07
5.1005e-08
-8.20699e-07
4.53685e-08
-8.37165e-07
3.97462e-08
-8.51356e-07
3.41548e-08
-8.63289e-07
2.86097e-08
-8.72989e-07
2.31257e-08
-8.80485e-07
1.77163e-08
-8.85814e-07
1.23942e-08
-8.89014e-07
7.17105e-09
-8.90131e-07
2.05764e-09
-8.89212e-07
-2.93626e-09
-8.86311e-07
-7.80178e-09
-8.81482e-07
-1.25309e-08
-8.74784e-07
-1.71166e-08
-8.66279e-07
-2.15526e-08
-8.5603e-07
-2.58333e-08
-8.44102e-07
-2.99543e-08
-8.30563e-07
-3.39115e-08
-8.15481e-07
-3.77017e-08
-7.98926e-07
-4.13226e-08
-7.80968e-07
-4.47723e-08
-7.61678e-07
-4.80495e-08
-7.41127e-07
-5.11537e-08
-7.19388e-07
-5.40848e-08
-6.9653e-07
-5.68433e-08
-6.72625e-07
-5.94301e-08
-6.47743e-07
-6.18467e-08
-6.21953e-07
-6.40948e-08
-5.95323e-07
-6.61767e-08
-5.67923e-07
-6.8095e-08
-5.39817e-07
-6.98525e-08
-5.1107e-07
-7.14523e-08
-4.81747e-07
-7.28981e-08
-4.51908e-07
-7.41934e-08
-4.21616e-07
-7.5342e-08
-3.90927e-07
-7.63482e-08
-3.59899e-07
-7.7216e-08
-3.28588e-07
-7.79498e-08
-2.97046e-07
-7.85541e-08
-2.65324e-07
-7.90334e-08
-2.33472e-07
-7.93923e-08
-2.01537e-07
-7.96354e-08
-1.69565e-07
-7.97674e-08
-1.37599e-07
-7.97931e-08
-1.05681e-07
-7.9717e-08
-7.38489e-08
-7.95438e-08
-4.21418e-08
-7.92783e-08
-1.05948e-08
-7.89248e-08
2.07583e-08
-7.84881e-08
5.18859e-08
-7.79725e-08
8.27579e-08
-7.73824e-08
1.13346e-07
-7.67222e-08
1.43624e-07
-7.5996e-08
1.73568e-07
-7.52081e-08
2.03153e-07
-7.43623e-08
2.3236e-07
-7.34627e-08
2.61167e-07
-7.2513e-08
2.89558e-07
-7.1517e-08
3.17515e-07
-7.04782e-08
3.45022e-07
-6.94002e-08
-6.82861e-08
3.72067e-07
-7.43968e-08
2.06685e-07
-1.47881e-07
2.04135e-07
-2.20211e-07
2.00897e-07
-2.91157e-07
1.97014e-07
-3.60507e-07
1.92527e-07
-4.28063e-07
1.87479e-07
-4.93639e-07
1.8191e-07
-5.57067e-07
1.75864e-07
-6.18191e-07
1.69382e-07
-6.76871e-07
1.62505e-07
-7.3298e-07
1.55273e-07
-7.86404e-07
1.47726e-07
-8.37043e-07
1.39903e-07
-8.84811e-07
1.3184e-07
-9.29635e-07
1.23576e-07
-9.71452e-07
1.15144e-07
-1.01021e-06
1.0658e-07
-1.04588e-06
9.79169e-08
-1.07843e-06
8.91854e-08
-1.10784e-06
8.04162e-08
-1.13411e-06
7.16381e-08
-1.15724e-06
6.28784e-08
-1.17725e-06
5.41632e-08
-1.19416e-06
4.5517e-08
-1.20799e-06
3.69626e-08
-1.2188e-06
2.85217e-08
-1.22662e-06
2.02143e-08
-1.23151e-06
1.2059e-08
-1.23352e-06
4.07279e-09
-1.23273e-06
-3.72852e-09
-1.2292e-06
-1.13307e-08
-1.22301e-06
-1.87208e-08
-1.21424e-06
-2.58874e-08
-1.20297e-06
-3.28202e-08
-1.1893e-06
-3.95102e-08
-1.1733e-06
-4.59499e-08
-1.15508e-06
-5.21327e-08
-1.13473e-06
-5.80533e-08
-1.11234e-06
-6.37074e-08
-1.08802e-06
-6.90919e-08
-1.06187e-06
-7.42047e-08
-1.03398e-06
-7.90445e-08
-1.00445e-06
-8.3611e-08
-9.73389e-07
-8.79049e-08
-9.40892e-07
-9.19274e-08
-9.07058e-07
-9.56806e-08
-8.71985e-07
-9.91674e-08
-8.35771e-07
-1.02391e-07
-7.9851e-07
-1.05356e-07
-7.60296e-07
-1.08066e-07
-7.21222e-07
-1.10527e-07
-6.81376e-07
-1.12744e-07
-6.40847e-07
-1.14723e-07
-5.99719e-07
-1.1647e-07
-5.58075e-07
-1.17991e-07
-5.15997e-07
-1.19295e-07
-4.7356e-07
-1.20386e-07
-4.30841e-07
-1.21274e-07
-3.8791e-07
-1.21964e-07
-3.44838e-07
-1.22464e-07
-3.01691e-07
-1.22783e-07
-2.58531e-07
-1.22927e-07
-2.15419e-07
-1.22904e-07
-1.72414e-07
-1.22722e-07
-1.2957e-07
-1.22388e-07
-8.69378e-08
-1.2191e-07
-4.45676e-08
-1.21295e-07
-2.50518e-09
-1.2055e-07
3.92059e-08
-1.19684e-07
8.05248e-08
-1.18701e-07
1.21414e-07
-1.17611e-07
1.61837e-07
-1.16419e-07
2.01761e-07
-1.15132e-07
2.41156e-07
-1.13757e-07
2.79994e-07
-1.123e-07
3.18248e-07
-1.10767e-07
3.55895e-07
-1.09164e-07
3.92914e-07
-1.07497e-07
4.29285e-07
-1.05771e-07
-1.03992e-07
4.6499e-07
-1.05823e-07
3.12508e-07
-2.10359e-07
3.08671e-07
-3.13273e-07
3.03812e-07
-4.1425e-07
2.97991e-07
-5.12995e-07
2.91272e-07
-6.09231e-07
2.83715e-07
-7.02702e-07
2.75382e-07
-7.93172e-07
2.66334e-07
-8.80423e-07
2.56633e-07
-9.64256e-07
2.46338e-07
-1.04449e-06
2.35508e-07
-1.12097e-06
2.24201e-07
-1.19354e-06
2.12474e-07
-1.26208e-06
2.00381e-07
-1.32648e-06
1.87977e-07
-1.38665e-06
1.75314e-07
-1.44251e-06
1.62442e-07
-1.494e-06
1.49411e-07
-1.54109e-06
1.36267e-07
-1.58373e-06
1.23056e-07
-1.62191e-06
1.09822e-07
-1.65563e-06
9.66038e-08
-1.68491e-06
8.34427e-08
-1.70977e-06
7.03754e-08
-1.73025e-06
5.74371e-08
-1.74639e-06
4.46609e-08
-1.75825e-06
3.20779e-08
-1.76591e-06
1.9717e-08
-1.76944e-06
7.60491e-09
-1.76893e-06
-4.23356e-09
-1.76449e-06
-1.57758e-08
-1.75621e-06
-2.70011e-08
-1.74421e-06
-3.7891e-08
-1.7286e-06
-4.84288e-08
-1.70951e-06
-5.85998e-08
-1.68707e-06
-6.83915e-08
-1.66141e-06
-7.77927e-08
-1.63266e-06
-8.67945e-08
-1.60098e-06
-9.53894e-08
-1.5665e-06
-1.03572e-07
-1.52937e-06
-1.11337e-07
-1.48973e-06
-1.18684e-07
-1.44773e-06
-1.2561e-07
-1.40352e-06
-1.32116e-07
-1.35725e-06
-1.38203e-07
-1.30905e-06
-1.43875e-07
-1.25908e-06
-1.49135e-07
-1.20749e-06
-1.53988e-07
-1.1544e-06
-1.58441e-07
-1.09997e-06
-1.62499e-07
-1.04432e-06
-1.66172e-07
-9.87601e-07
-1.69466e-07
-9.29932e-07
-1.72392e-07
-8.71442e-07
-1.74959e-07
-8.12257e-07
-1.77177e-07
-7.52494e-07
-1.79058e-07
-6.92269e-07
-1.80611e-07
-6.31694e-07
-1.81849e-07
-5.70875e-07
-1.82783e-07
-5.09915e-07
-1.83424e-07
-4.48912e-07
-1.83786e-07
-3.87959e-07
-1.8388e-07
-3.27146e-07
-1.83717e-07
-2.66557e-07
-1.83311e-07
-2.06272e-07
-1.82673e-07
-1.46367e-07
-1.81816e-07
-8.69118e-08
-1.8075e-07
-2.7974e-08
-1.79488e-07
3.03841e-08
-1.78042e-07
8.81043e-08
-1.76422e-07
1.45133e-07
-1.74639e-07
2.01419e-07
-1.72705e-07
2.56917e-07
-1.70631e-07
3.11585e-07
-1.68425e-07
3.65384e-07
-1.66099e-07
4.18279e-07
-1.63662e-07
4.70238e-07
-1.61123e-07
5.21232e-07
-1.58492e-07
5.71237e-07
-1.55776e-07
-1.52985e-07
6.2023e-07
-1.52564e-07
4.65071e-07
-3.03295e-07
4.59402e-07
-4.51733e-07
4.5225e-07
-5.97444e-07
4.43702e-07
-7.40019e-07
4.33847e-07
-8.79075e-07
4.22771e-07
-1.01426e-06
4.10562e-07
-1.14523e-06
3.97306e-07
-1.27168e-06
3.83089e-07
-1.39334e-06
3.67995e-07
-1.50994e-06
3.52106e-07
-1.62124e-06
3.35505e-07
-1.72704e-06
3.1827e-07
-1.82714e-06
3.00481e-07
-1.92138e-06
2.82214e-07
-2.0096e-06
2.63543e-07
-2.0917e-06
2.4454e-07
-2.16757e-06
2.25276e-07
-2.23712e-06
2.0582e-07
-2.3003e-06
1.86236e-07
-2.35707e-06
1.66588e-07
-2.4074e-06
1.46938e-07
-2.4513e-06
1.27344e-07
-2.48879e-06
1.07861e-07
-2.51989e-06
8.85431e-08
-2.54467e-06
6.94408e-08
-2.5632e-06
5.06017e-08
-2.57555e-06
3.20708e-08
-2.58183e-06
1.38901e-08
-2.58217e-06
-3.90101e-09
-2.57668e-06
-2.12662e-08
-2.56551e-06
-3.81721e-08
-2.54881e-06
-5.4588e-08
-2.52675e-06
-7.04865e-08
-2.49951e-06
-8.58425e-08
-2.46727e-06
-1.00634e-07
-2.43022e-06
-1.14843e-07
-2.38856e-06
-1.28452e-07
-2.3425e-06
-1.41447e-07
-2.29225e-06
-1.53818e-07
-2.23804e-06
-1.65556e-07
-2.18006e-06
-1.76656e-07
-2.11856e-06
-1.87113e-07
-2.05375e-06
-1.96927e-07
-1.98586e-06
-2.06097e-07
-1.9151e-06
-2.14628e-07
-1.84171e-06
-2.22524e-07
-1.76591e-06
-2.29792e-07
-1.68791e-06
-2.3644e-07
-1.60793e-06
-2.42479e-07
-1.52618e-06
-2.47919e-07
-1.44288e-06
-2.52773e-07
-1.35821e-06
-2.57056e-07
-1.27239e-06
-2.60782e-07
-1.1856e-06
-2.63967e-07
-1.09803e-06
-2.66628e-07
-1.00986e-06
-2.68783e-07
-9.21257e-07
-2.7045e-07
-8.32394e-07
-2.71646e-07
-7.43426e-07
-2.72392e-07
-6.54506e-07
-2.72706e-07
-5.65778e-07
-2.72608e-07
-4.77378e-07
-2.72117e-07
-3.89436e-07
-2.71253e-07
-3.02074e-07
-2.70035e-07
-2.15407e-07
-2.68483e-07
-1.29541e-07
-2.66616e-07
-4.4578e-08
-2.64452e-07
3.93905e-08
-2.6201e-07
1.22278e-07
-2.59309e-07
2.04005e-07
-2.56366e-07
2.84498e-07
-2.53199e-07
3.63692e-07
-2.49825e-07
4.41527e-07
-2.4626e-07
5.17947e-07
-2.42519e-07
5.92905e-07
-2.3862e-07
6.66358e-07
-2.34576e-07
7.38268e-07
-2.30401e-07
8.08602e-07
-2.2611e-07
-2.21716e-07
8.77333e-07
-2.20386e-07
6.85458e-07
-4.38179e-07
6.77195e-07
-6.52763e-07
6.66833e-07
-8.63553e-07
6.54493e-07
-1.07e-06
6.40294e-07
-1.27159e-06
6.24357e-07
-1.46782e-06
6.06798e-07
-1.65825e-06
5.87734e-07
-1.84244e-06
5.6728e-07
-2.02e-06
5.45549e-07
-2.19054e-06
5.2265e-07
-2.35373e-06
4.98695e-07
-2.50925e-06
4.7379e-07
-2.65681e-06
4.48041e-07
-2.79615e-06
4.21551e-07
-2.92703e-06
3.94423e-07
-3.04924e-06
3.66755e-07
-3.16261e-06
3.38646e-07
-3.26698e-06
3.1019e-07
-3.36223e-06
2.81481e-07
-3.44825e-06
2.52608e-07
-3.52497e-06
2.23661e-07
-3.59235e-06
1.94724e-07
-3.65037e-06
1.6588e-07
-3.69904e-06
1.37209e-07
-3.73838e-06
1.08787e-07
-3.76847e-06
8.06893e-08
-3.78938e-06
5.29851e-08
-3.80124e-06
2.57416e-08
-3.80416e-06
-9.77948e-10
-3.79831e-06
-2.71137e-08
-3.78387e-06
-5.26098e-08
-3.76105e-06
-7.74144e-08
-3.73005e-06
-1.01479e-07
-3.69114e-06
-1.24761e-07
-3.64455e-06
-1.47219e-07
-3.59057e-06
-1.68819e-07
-3.5295e-06
-1.89529e-07
-3.46162e-06
-2.09321e-07
-3.38727e-06
-2.28174e-07
-3.30676e-06
-2.46068e-07
-3.22042e-06
-2.62988e-07
-3.12861e-06
-2.78925e-07
-3.03167e-06
-2.93871e-07
-2.92994e-06
-3.07824e-07
-2.82379e-06
-3.20783e-07
-2.71355e-06
-3.32755e-07
-2.5996e-06
-3.43745e-07
-2.48228e-06
-3.53764e-07
-2.36193e-06
-3.62827e-07
-2.2389e-06
-3.70949e-07
-2.11353e-06
-3.78149e-07
-1.98613e-06
-3.84448e-07
-1.85705e-06
-3.89869e-07
-1.72658e-06
-3.94437e-07
-1.59503e-06
-3.98179e-07
-1.46269e-06
-4.01122e-07
-1.32984e-06
-4.03296e-07
-1.19676e-06
-4.04731e-07
-1.06369e-06
-4.05458e-07
-9.30889e-07
-4.05508e-07
-7.98584e-07
-4.04913e-07
-6.66996e-07
-4.03705e-07
-5.36331e-07
-4.01918e-07
-4.06783e-07
-3.99583e-07
-2.78534e-07
-3.96732e-07
-1.51752e-07
-3.93397e-07
-2.65936e-08
-3.8961e-07
9.67979e-08
-3.85402e-07
2.18291e-07
-3.80802e-07
3.37765e-07
-3.7584e-07
4.55111e-07
-3.70546e-07
5.70233e-07
-3.64946e-07
6.83043e-07
-3.5907e-07
7.93464e-07
-3.52941e-07
9.01431e-07
-3.46586e-07
1.00688e-06
-3.40029e-07
1.10978e-06
-3.33294e-07
1.21007e-06
-3.26401e-07
-3.19374e-07
1.30773e-06
-3.16419e-07
1.00188e-06
-6.29233e-07
9.9001e-07
-9.37668e-07
9.75268e-07
-1.24099e-06
9.57813e-07
-1.53849e-06
9.37799e-07
-1.82952e-06
9.15381e-07
-2.11343e-06
8.90706e-07
-2.38961e-06
8.63922e-07
-2.6575e-06
8.3517e-07
-2.91655e-06
8.04593e-07
-3.16622e-06
7.72326e-07
-3.40603e-06
7.38506e-07
-3.63551e-06
7.03268e-07
-3.85421e-06
6.66742e-07
-4.06172e-06
6.29059e-07
-4.25764e-06
5.90348e-07
-4.44163e-06
5.50737e-07
-4.61333e-06
5.10353e-07
-4.77246e-06
4.6932e-07
-4.91875e-06
4.27764e-07
-5.05195e-06
3.85807e-07
-5.17186e-06
3.43571e-07
-5.27831e-06
3.01176e-07
-5.37117e-06
2.58742e-07
-5.45035e-06
2.16385e-07
-5.51578e-06
1.74221e-07
-5.56745e-06
1.32362e-07
-5.60539e-06
9.09196e-08
-5.62965e-06
5.00005e-08
-5.64033e-06
9.70897e-09
-5.63759e-06
-2.98545e-08
-5.62161e-06
-6.85933e-08
-5.59261e-06
-1.06416e-07
-5.55085e-06
-1.43234e-07
-5.49665e-06
-1.78966e-07
-5.43033e-06
-2.13537e-07
-5.35227e-06
-2.46874e-07
-5.26289e-06
-2.78914e-07
-5.16261e-06
-3.096e-07
-5.05191e-06
-3.38879e-07
-4.93127e-06
-3.66707e-07
-4.80121e-06
-3.93048e-07
-4.66226e-06
-4.17871e-07
-4.51498e-06
-4.41153e-07
-4.35993e-06
-4.62877e-07
-4.19768e-06
-4.83034e-07
-4.02881e-06
-5.01621e-07
-3.85391e-06
-5.18642e-07
-3.67357e-06
-5.34107e-07
-3.48836e-06
-5.48032e-07
-3.29888e-06
-5.60437e-07
-3.10568e-06
-5.71349e-07
-2.90932e-06
-5.80798e-07
-2.71037e-06
-5.88821e-07
-2.50935e-06
-5.95456e-07
-2.30678e-06
-6.00747e-07
-2.10317e-06
-6.04738e-07
-1.89899e-06
-6.07478e-07
-1.6947e-06
-6.09018e-07
-1.49075e-06
-6.09409e-07
-1.28755e-06
-6.08707e-07
-1.0855e-06
-6.06964e-07
-8.84965e-07
-6.04238e-07
-6.86299e-07
-6.00584e-07
-4.89824e-07
-5.96058e-07
-2.95841e-07
-5.90715e-07
-1.04626e-07
-5.84612e-07
8.35654e-08
-5.77802e-07
2.68503e-07
-5.70339e-07
4.49978e-07
-5.62277e-07
6.27803e-07
-5.53665e-07
8.01812e-07
-5.44555e-07
9.71859e-07
-5.34993e-07
1.13782e-06
-5.25028e-07
1.29958e-06
-5.14703e-07
1.45706e-06
-5.04063e-07
1.61017e-06
-4.93147e-07
1.75888e-06
-4.81995e-07
1.90312e-06
-4.70645e-07
-4.59131e-07
2.04288e-06
-4.47944e-07
1.44982e-06
-8.91039e-07
1.4331e-06
-1.32843e-06
1.41265e-06
-1.75928e-06
1.38867e-06
-2.18281e-06
1.36133e-06
-2.59825e-06
1.33082e-06
-3.00486e-06
1.29731e-06
-3.4019e-06
1.26096e-06
-3.78865e-06
1.22193e-06
-4.16442e-06
1.18036e-06
-4.52852e-06
1.13642e-06
-4.88025e-06
1.09024e-06
-5.21896e-06
1.04197e-06
-5.54397e-06
9.91755e-07
-5.85464e-06
9.39729e-07
-6.15033e-06
8.86035e-07
-6.43041e-06
8.30816e-07
-6.69427e-06
7.74217e-07
-6.94133e-06
7.1638e-07
-7.17102e-06
6.57455e-07
-7.38281e-06
5.97591e-07
-7.57618e-06
5.3694e-07
-7.75066e-06
4.75658e-07
-7.90582e-06
4.13903e-07
-8.04127e-06
3.51838e-07
-8.15668e-06
2.89626e-07
-8.25175e-06
2.27434e-07
-8.32626e-06
1.6543e-07
-8.38004e-06
1.03785e-07
-8.413e-06
4.26695e-08
-8.42511e-06
-1.77452e-08
-8.41642e-06
-7.72892e-08
-8.38704e-06
-1.35794e-07
-8.33718e-06
-1.93095e-07
-8.26712e-06
-2.49029e-07
-8.17721e-06
-3.03442e-07
-8.0679e-06
-3.56184e-07
-7.9397e-06
-4.07113e-07
-7.7932e-06
-4.56097e-07
-7.62907e-06
-5.03013e-07
-7.44803e-06
-5.4775e-07
-7.25087e-06
-5.90208e-07
-7.03843e-06
-6.30303e-07
-6.81163e-06
-6.6796e-07
-6.57138e-06
-7.03121e-07
-6.31867e-06
-7.35743e-07
-6.0545e-06
-7.65793e-07
-5.77989e-06
-7.93257e-07
-5.49587e-06
-8.18129e-07
-5.20348e-06
-8.40421e-07
-4.90376e-06
-8.60154e-07
-4.59775e-06
-8.77362e-07
-4.28646e-06
-8.92089e-07
-3.97089e-06
-9.04389e-07
-3.65202e-06
-9.14325e-07
-3.3308e-06
-9.21968e-07
-3.00814e-06
-9.27395e-07
-2.68493e-06
-9.30691e-07
-2.362e-06
-9.31945e-07
-2.04016e-06
-9.31249e-07
-1.72017e-06
-9.28701e-07
-1.40273e-06
-9.244e-07
-1.08852e-06
-9.18447e-07
-7.78161e-07
-9.10944e-07
-4.72225e-07
-9.01994e-07
-1.71241e-07
-8.917e-07
1.24311e-07
-8.80163e-07
4.13993e-07
-8.67485e-07
6.97418e-07
-8.53764e-07
9.74238e-07
-8.39097e-07
1.24415e-06
-8.23579e-07
1.5069e-06
-8.07301e-07
1.76226e-06
-7.90351e-07
2.01004e-06
-7.72815e-07
2.25011e-06
-7.54774e-07
2.48236e-06
-7.36306e-07
2.7067e-06
-7.17485e-07
2.92308e-06
-6.98379e-07
3.13149e-06
-6.79056e-07
-6.59576e-07
3.33194e-06
-6.18995e-07
2.06882e-06
-1.2318e-06
2.04591e-06
-1.83769e-06
2.01855e-06
-2.436e-06
1.98697e-06
-3.02602e-06
1.95135e-06
-3.60706e-06
1.91187e-06
-4.17844e-06
1.86869e-06
-4.73944e-06
1.82196e-06
-5.28932e-06
1.7718e-06
-5.82731e-06
1.71835e-06
-6.35261e-06
1.66173e-06
-6.86441e-06
1.60204e-06
-7.36182e-06
1.53939e-06
-7.84394e-06
1.47388e-06
-8.30983e-06
1.40562e-06
-8.75851e-06
1.33472e-06
-9.18897e-06
1.26127e-06
-9.60014e-06
1.18539e-06
-9.99095e-06
1.1072e-06
-1.03603e-05
1.02681e-06
-1.07071e-05
9.44367e-07
-1.10302e-05
8.60006e-07
-1.13284e-05
7.73881e-07
-1.16006e-05
6.86159e-07
-1.18458e-05
5.97021e-07
-1.20629e-05
5.06662e-07
-1.22507e-05
4.15292e-07
-1.24084e-05
3.2314e-07
-1.25351e-05
2.30447e-07
-1.26299e-05
1.37475e-07
-1.26921e-05
4.44981e-08
-1.27212e-05
-4.81926e-08
-1.27167e-05
-1.40293e-07
-1.26783e-05
-2.31487e-07
-1.26059e-05
-3.21449e-07
-1.24995e-05
-4.09846e-07
-1.23594e-05
-4.96344e-07
-1.21859e-05
-5.80609e-07
-1.19796e-05
-6.62311e-07
-1.17415e-05
-7.41132e-07
-1.14725e-05
-8.1677e-07
-1.11738e-05
-8.88943e-07
-1.08467e-05
-9.57394e-07
-1.04927e-05
-1.0219e-06
-1.01136e-05
-1.08226e-06
-9.71103e-06
-1.13832e-06
-9.28687e-06
-1.18995e-06
-8.84306e-06
-1.23707e-06
-8.38158e-06
-1.27961e-06
-7.90444e-06
-1.31756e-06
-7.41367e-06
-1.35093e-06
-6.91128e-06
-1.37975e-06
-6.39928e-06
-1.40409e-06
-5.87964e-06
-1.42403e-06
-5.35427e-06
-1.43969e-06
-4.82505e-06
-1.45119e-06
-4.29376e-06
-1.45868e-06
-3.76215e-06
-1.4623e-06
-3.23186e-06
-1.46224e-06
-2.70444e-06
-1.45867e-06
-2.18137e-06
-1.45177e-06
-1.66404e-06
-1.44173e-06
-1.15372e-06
-1.42877e-06
-6.51606e-07
-1.41306e-06
-1.58788e-07
-1.39481e-06
3.23741e-07
-1.37423e-06
7.95087e-07
-1.35151e-06
1.25445e-06
-1.32685e-06
1.70113e-06
-1.30044e-06
2.13452e-06
-1.27249e-06
2.5541e-06
-1.24316e-06
2.95945e-06
-1.21265e-06
3.35022e-06
-1.18112e-06
3.72616e-06
-1.14876e-06
4.08709e-06
-1.11571e-06
4.43292e-06
-1.08213e-06
4.7636e-06
-1.04816e-06
5.07916e-06
-1.01395e-06
5.37971e-06
-9.79606e-07
-9.45254e-07
5.66539e-06
-8.23253e-07
2.89207e-06
-1.63918e-06
2.86183e-06
-2.4477e-06
2.82707e-06
-3.2487e-06
2.78798e-06
-4.04205e-06
2.7447e-06
-4.82756e-06
2.69737e-06
-5.60496e-06
2.64609e-06
-6.37394e-06
2.59093e-06
-7.13409e-06
2.53195e-06
-7.88491e-06
2.46918e-06
-8.62582e-06
2.40263e-06
-9.3561e-06
2.33232e-06
-1.0075e-05
2.25823e-06
-1.07814e-05
2.18035e-06
-1.14744e-05
2.09863e-06
-1.21528e-05
2.01306e-06
-1.28151e-05
1.92359e-06
-1.34599e-05
1.83018e-06
-1.40855e-05
1.73279e-06
-1.46901e-05
1.63139e-06
-1.52716e-05
1.52596e-06
-1.58281e-05
1.41648e-06
-1.63572e-05
1.30296e-06
-1.68565e-05
1.18542e-06
-1.73233e-05
1.0639e-06
-1.77552e-05
9.38487e-07
-1.81492e-05
8.09289e-07
-1.85025e-05
6.76459e-07
-1.88122e-05
5.40197e-07
-1.90755e-05
4.00757e-07
-1.92895e-05
2.58449e-07
-1.94513e-05
1.1365e-07
-1.95584e-05
-3.3195e-08
-1.96083e-05
-1.81565e-07
-1.95989e-05
-3.30863e-07
-1.95284e-05
-4.8041e-07
-1.93952e-05
-6.2945e-07
-1.91987e-05
-7.77153e-07
-1.89384e-05
-9.22618e-07
-1.86146e-05
-1.06489e-06
-1.82284e-05
-1.20299e-06
-1.77813e-05
-1.33601e-06
-1.72757e-05
-1.46308e-06
-1.67142e-05
-1.58339e-06
-1.61002e-05
-1.69624e-06
-1.54374e-05
-1.80108e-06
-1.47299e-05
-1.89749e-06
-1.39818e-05
-1.98517e-06
-1.31975e-05
-2.06392e-06
-1.23814e-05
-2.13366e-06
-1.15379e-05
-2.1944e-06
-1.06714e-05
-2.24622e-06
-9.78627e-06
-2.28925e-06
-8.88659e-06
-2.32371e-06
-7.97645e-06
-2.34984e-06
-7.05973e-06
-2.36791e-06
-6.14018e-06
-2.37823e-06
-5.22135e-06
-2.38113e-06
-4.30661e-06
-2.37698e-06
-3.39916e-06
-2.36612e-06
-2.50197e-06
-2.34895e-06
-1.61784e-06
-2.32586e-06
-7.49362e-07
-2.29725e-06
1.01079e-07
-2.2635e-06
9.31277e-07
-2.22501e-06
1.73922e-06
-2.18217e-06
2.52308e-06
-2.13537e-06
3.28125e-06
-2.08501e-06
4.01228e-06
-2.03147e-06
4.71494e-06
-1.97515e-06
5.38821e-06
-1.91643e-06
6.03126e-06
-1.8557e-06
6.64347e-06
-1.79333e-06
7.22443e-06
-1.72971e-06
7.77392e-06
-1.6652e-06
8.29196e-06
-1.60016e-06
8.77873e-06
-1.53494e-06
9.23463e-06
-1.46985e-06
9.66024e-06
-1.40521e-06
-1.3413e-06
1.00563e-05
-1.0332e-06
3.92527e-06
-2.05858e-06
3.88722e-06
-3.07737e-06
3.84586e-06
-4.09071e-06
3.80131e-06
-5.09964e-06
3.75364e-06
-6.10515e-06
3.70288e-06
-7.10809e-06
3.64903e-06
-8.10923e-06
3.59208e-06
-9.10923e-06
3.53194e-06
-1.01086e-05
3.46855e-06
-1.11077e-05
3.40177e-06
-1.21069e-05
3.33146e-06
-1.31061e-05
3.25744e-06
-1.41052e-05
3.17951e-06
-1.5104e-05
3.09742e-06
-1.61019e-05
3.01092e-06
-1.7098e-05
2.9197e-06
-1.80912e-05
2.82343e-06
-1.90802e-05
2.72176e-06
-2.00631e-05
2.6143e-06
-2.10378e-05
2.50061e-06
-2.20015e-05
2.38024e-06
-2.29513e-05
2.25272e-06
-2.38834e-05
2.11754e-06
-2.47937e-05
1.97417e-06
-2.56773e-05
1.82207e-06
-2.65287e-05
1.66069e-06
-2.73417e-05
1.48949e-06
-2.81094e-05
1.30794e-06
-2.88242e-05
1.11556e-06
-2.94777e-05
9.1191e-07
-3.00607e-05
6.96663e-07
-3.05635e-05
4.69603e-07
-3.09758e-05
2.30689e-07
-3.12867e-05
-1.98918e-08
-3.14855e-05
-2.8166e-07
-3.15612e-05
-5.53758e-07
-3.15035e-05
-8.34852e-07
-3.13031e-05
-1.12301e-06
-3.09527e-05
-1.41528e-06
-3.04553e-05
-1.7004e-06
-2.98092e-05
-1.9821e-06
-2.90177e-05
-2.25455e-06
-2.80893e-05
-2.51176e-06
-2.70349e-05
-2.75065e-06
-2.58664e-05
-2.96951e-06
-2.45965e-05
-3.16746e-06
-2.32374e-05
-3.34419e-06
-2.18014e-05
-3.49983e-06
-2.03002e-05
-3.63477e-06
-1.87449e-05
-3.74963e-06
-1.71458e-05
-3.84516e-06
-1.55127e-05
-3.92219e-06
-1.38546e-05
-3.9816e-06
-1.21799e-05
-4.02425e-06
-1.04965e-05
-4.05104e-06
-8.81165e-06
-4.06281e-06
-7.13209e-06
-4.06035e-06
-5.46436e-06
-4.04435e-06
-3.81528e-06
-4.01482e-06
-2.19097e-06
-3.97286e-06
-5.96055e-07
-3.92036e-06
9.65135e-07
-3.85802e-06
2.48822e-06
-3.78618e-06
3.96887e-06
-3.70527e-06
5.40283e-06
-3.61576e-06
6.78594e-06
-3.51815e-06
8.1142e-06
-3.41296e-06
9.38375e-06
-3.30075e-06
1.05909e-05
-3.1821e-06
1.17324e-05
-3.05767e-06
1.2805e-05
-2.92814e-06
1.38061e-05
-2.79426e-06
1.47334e-05
-2.65686e-06
1.55851e-05
-2.51687e-06
1.63603e-05
-2.37528e-06
1.70587e-05
-2.23322e-06
1.76808e-05
-2.09195e-06
1.82285e-05
-1.95285e-06
-1.81761e-06
1.87049e-05
-1.19197e-06
5.11723e-06
-2.37646e-06
5.07171e-06
-3.55636e-06
5.02577e-06
-4.73447e-06
4.97942e-06
-5.91348e-06
4.93265e-06
-7.09602e-06
4.88541e-06
-8.28465e-06
4.83766e-06
-9.4819e-06
4.78933e-06
-1.06903e-05
4.74033e-06
-1.19123e-05
4.69055e-06
-1.31504e-05
4.63986e-06
-1.4407e-05
4.5881e-06
-1.56847e-05
4.53509e-06
-1.69858e-05
4.48061e-06
-1.83128e-05
4.4244e-06
-1.9668e-05
4.36617e-06
-2.10539e-05
4.30555e-06
-2.24726e-05
4.24215e-06
-2.39263e-05
4.17546e-06
-2.54169e-05
4.10492e-06
-2.69462e-05
4.02987e-06
-2.85154e-05
3.9495e-06
-3.01256e-05
3.8629e-06
-3.1777e-05
3.76896e-06
-3.34693e-05
3.66641e-06
-3.52009e-05
3.55372e-06
-3.69693e-05
3.42909e-06
-3.87702e-05
3.29042e-06
-4.05975e-05
3.13519e-06
-4.24424e-05
2.96047e-06
-4.42933e-05
2.76277e-06
-4.61346e-05
2.53799e-06
-4.79463e-05
2.28128e-06
-4.97025e-05
1.98692e-06
-5.13706e-05
1.64818e-06
-5.29093e-05
1.25712e-06
-5.42675e-05
8.04388e-07
-5.53813e-05
2.78997e-07
-5.61723e-05
-3.32059e-07
-5.64112e-05
-1.14155e-06
-5.6021e-05
-1.72365e-06
-5.50319e-05
-2.42945e-06
-5.35487e-05
-3.08453e-06
-5.16646e-05
-3.63907e-06
-4.94589e-05
-4.09458e-06
-4.69974e-05
-4.46273e-06
-4.43332e-05
-4.75596e-06
-4.15097e-05
-4.98563e-06
-3.85617e-05
-5.1617e-06
-3.55176e-05
-5.29272e-06
-3.24006e-05
-5.38595e-06
-2.92295e-05
-5.44744e-06
-2.60202e-05
-5.4823e-06
-2.2786e-05
-5.49466e-06
-1.95384e-05
-5.48791e-06
-1.62875e-05
-5.46479e-06
-1.30422e-05
-5.42736e-06
-9.81114e-06
-5.37706e-06
-6.6026e-06
-5.31401e-06
-3.42767e-06
-5.23141e-06
-2.95056e-07
-5.13518e-06
2.79048e-06
-5.03635e-06
5.82347e-06
-4.93456e-06
8.79698e-06
-4.82693e-06
1.17031e-05
-4.71169e-06
1.4533e-05
-4.58744e-06
1.7277e-05
-4.45289e-06
1.99245e-05
-4.30671e-06
2.24638e-05
-4.14756e-06
2.4882e-05
-3.97398e-06
2.71647e-05
-3.7844e-06
2.92962e-05
-3.57712e-06
3.12586e-05
-3.35027e-06
3.30322e-05
-3.10183e-06
3.45946e-05
-2.82961e-06
3.5921e-05
-2.53128e-06
3.69836e-05
-2.20435e-06
3.77512e-05
-1.84618e-06
3.81887e-05
-1.45408e-06
-1.02598e-06
3.82561e-05
-1.22678e-06
6.34401e-06
-2.44661e-06
6.29154e-06
-3.66323e-06
6.24238e-06
-4.88024e-06
6.19644e-06
-6.10123e-06
6.15363e-06
-7.32975e-06
6.11394e-06
-8.56941e-06
6.07732e-06
-9.82389e-06
6.04381e-06
-1.1097e-05
6.01344e-06
-1.23927e-05
5.98628e-06
-1.37153e-05
5.96243e-06
-1.50692e-05
5.94202e-06
-1.64593e-05
5.92522e-06
-1.7891e-05
5.91224e-06
-1.93699e-05
5.90333e-06
-2.09025e-05
5.89881e-06
-2.2496e-05
5.89905e-06
-2.41584e-05
5.90449e-06
-2.58986e-05
5.91565e-06
-2.77268e-05
5.93314e-06
-2.96546e-05
5.95772e-06
-3.16954e-05
5.99022e-06
-3.38642e-05
6.03169e-06
-3.61785e-05
6.08332e-06
-3.86586e-05
6.14652e-06
-4.13279e-05
6.22297e-06
-4.42134e-05
6.31464e-06
-4.73468e-05
6.42384e-06
-5.0765e-05
6.55333e-06
-5.45108e-05
6.70632e-06
-5.86347e-05
6.88662e-06
-6.31954e-05
7.09871e-06
-6.8262e-05
7.34786e-06
-7.39154e-05
7.64029e-06
-8.02505e-05
7.98331e-06
-8.73789e-05
8.38552e-06
-9.54315e-05
8.85703e-06
-0.000104562
9.40973e-06
-0.000114839
9.95276e-06
-0.000110075
1.79329e-06
-0.000101883
-1.76659e-07
-9.40979e-05
-3.63021e-07
-8.67847e-05
-5.10948e-07
-7.99037e-05
-6.26699e-07
-7.34078e-05
-7.16114e-07
-6.72531e-05
-7.84226e-07
-6.14012e-05
-8.35127e-07
-5.58182e-05
-8.72116e-07
-5.04747e-05
-8.97862e-07
-4.53446e-05
-9.14515e-07
-4.04045e-05
-9.23804e-07
-3.56332e-05
-9.27113e-07
-3.10113e-05
-9.25577e-07
-2.65207e-05
-9.20097e-07
-2.21443e-05
-9.11397e-07
-1.7866e-05
-9.00025e-07
-1.36701e-05
-8.86426e-07
-9.54121e-06
-8.70916e-07
-5.46336e-06
-8.53556e-07
-1.41512e-06
-8.33816e-07
2.61841e-06
-8.13064e-07
6.64559e-06
-7.91505e-07
1.06759e-05
-7.69026e-07
1.47205e-05
-7.45463e-07
1.87917e-05
-7.20623e-07
2.29022e-05
-6.94323e-07
2.7065e-05
-6.6636e-07
3.12934e-05
-6.36486e-07
3.56013e-05
-6.04438e-07
4.00026e-05
-5.6992e-07
4.4512e-05
-5.32608e-07
4.91445e-05
-4.92157e-07
5.39159e-05
-4.48184e-07
5.8843e-05
-4.00276e-07
6.39432e-05
-3.47988e-07
6.92355e-05
-2.90839e-07
7.47399e-05
-2.28309e-07
8.04779e-05
-1.59836e-07
8.64729e-05
-8.48089e-08
-2.54217e-09
9.27507e-05
-1.10218e-06
7.44619e-06
-2.19727e-06
7.38663e-06
-3.28778e-06
7.33289e-06
-4.37612e-06
7.28478e-06
-5.46462e-06
7.24213e-06
-6.55552e-06
7.20483e-06
-7.65102e-06
7.17283e-06
-8.75328e-06
7.14607e-06
-9.86439e-06
7.12456e-06
-1.09864e-05
7.10833e-06
-1.21214e-05
7.09744e-06
-1.32714e-05
7.09198e-06
-1.44383e-05
7.09207e-06
-1.56239e-05
7.09788e-06
-1.68301e-05
7.10958e-06
-1.80587e-05
7.12737e-06
-1.93111e-05
7.1515e-06
-2.05889e-05
7.18222e-06
-2.18931e-05
7.21983e-06
-2.32246e-05
7.26464e-06
-2.45838e-05
7.31697e-06
-2.59708e-05
7.37718e-06
-2.73847e-05
7.44561e-06
-2.8824e-05
7.52265e-06
-3.02861e-05
7.60864e-06
-3.17671e-05
7.70393e-06
-3.32613e-05
7.80883e-06
-3.47611e-05
7.92363e-06
-3.62563e-05
8.04851e-06
-3.77335e-05
8.18359e-06
-3.91757e-05
8.32884e-06
-4.05611e-05
8.48405e-06
-4.1862e-05
8.64882e-06
-4.30442e-05
8.82243e-06
-4.40647e-05
9.00382e-06
-4.48706e-05
9.19146e-06
-4.53969e-05
9.38329e-06
-4.55625e-05
9.57552e-06
-3.75426e-05
7.4181e-06
-2.74984e-05
3.78884e-07
-2.37938e-05
2.47223e-07
-2.08218e-05