/*--------------------------------*- C++ -*----------------------------------*\
  =========                 |
  \\      /  F ield         | OpenFOAM: The Open Source CFD Toolbox
   \\    /   O peration     | Website:  https://openfoam.org
    \\  /    A nd           | Version:  8
     \\/     M anipulation  |
\*---------------------------------------------------------------------------*/
FoamFile
{
    version     2.0;
    format      ascii;
    class       surfaceScalarField;
    location    "5000";
    object      phib;
}
// * * * * * * * * * * * * * * * * * * * * * * * * * * * * * * * * * * * * * //

dimensions      [0 3 -1 0 0 0 0];

internalField   nonuniform List<scalar> 
25360
(
-6.4467e-19
-4.26897e-14
-1.28133e-18
-4.23168e-14
-1.90779e-18
-4.19472e-14
-2.52199e-18
-4.15807e-14
-3.122e-18
-4.12175e-14
-3.70603e-18
-4.08575e-14
-4.27243e-18
-4.05005e-14
-4.81969e-18
-4.01468e-14
-5.34642e-18
-3.97961e-14
-5.85138e-18
-3.94484e-14
-6.33345e-18
-3.91039e-14
-6.79164e-18
-3.87623e-14
-7.22509e-18
-3.84237e-14
-7.63305e-18
-3.80881e-14
-8.01491e-18
-3.77554e-14
-8.37015e-18
-3.74256e-14
-8.69837e-18
-3.70986e-14
-8.99928e-18
-3.67746e-14
-9.27268e-18
-3.64534e-14
-9.51847e-18
-3.61349e-14
-9.73665e-18
-3.58193e-14
-9.92728e-18
-3.55064e-14
-1.00905e-17
-3.51963e-14
-1.02266e-17
-3.48889e-14
-1.03359e-17
-3.45841e-14
-1.04187e-17
-3.4282e-14
-1.04755e-17
-3.39826e-14
-1.05067e-17
-3.36857e-14
-1.05128e-17
-3.33915e-14
-1.04946e-17
-3.30998e-14
-1.04525e-17
-3.28107e-14
-1.03874e-17
-3.25241e-14
-1.02998e-17
-3.224e-14
-1.01904e-17
-3.19584e-14
-1.00602e-17
-3.16792e-14
-9.90972e-18
-3.14025e-14
-9.7399e-18
-3.11282e-14
-9.55151e-18
-3.08563e-14
-9.34537e-18
-3.05868e-14
-9.1223e-18
-3.03196e-14
-8.88316e-18
-3.00548e-14
-8.62876e-18
-2.97922e-14
-8.35995e-18
-2.9532e-14
-8.07756e-18
-2.9274e-14
-7.78242e-18
-2.90183e-14
-7.47535e-18
-2.87648e-14
-7.15717e-18
-2.85136e-14
-6.82867e-18
-2.82645e-14
-6.49066e-18
-2.80176e-14
-6.1439e-18
-2.77729e-14
-5.78915e-18
-2.75303e-14
-5.42717e-18
-2.72898e-14
-5.05868e-18
-2.70514e-14
-4.68439e-18
-2.68151e-14
-4.30499e-18
-2.65809e-14
-3.92115e-18
-2.63487e-14
-3.53351e-18
-2.61185e-14
-3.14272e-18
-2.58903e-14
-2.74937e-18
-2.56642e-14
-2.35405e-18
-2.544e-14
-1.95733e-18
-2.52178e-14
-1.55975e-18
-2.49975e-14
-1.16183e-18
-2.47791e-14
-7.64066e-19
-2.45626e-14
-3.66933e-19
-2.43481e-14
2.91119e-20
-2.41354e-14
4.23637e-19
-2.39245e-14
8.16231e-19
-2.37156e-14
1.2065e-18
-2.35084e-14
1.59408e-18
-2.3303e-14
1.97863e-18
-2.30995e-14
2.3598e-18
-2.28977e-14
2.73729e-18
-2.26976e-14
3.11081e-18
-2.24994e-14
3.4801e-18
-2.23028e-14
3.84488e-18
-2.2108e-14
4.20494e-18
-2.19149e-14
4.56005e-18
-2.17234e-14
4.91001e-18
-2.15336e-14
-2.13455e-14
5.25463e-18
-7.44805e-19
-4.2689e-14
-1.48038e-18
-4.23161e-14
-2.20421e-18
-4.19464e-14
-2.91394e-18
-4.158e-14
-3.60736e-18
-4.12168e-14
-4.28242e-18
-4.08568e-14
-4.93722e-18
-4.04999e-14
-5.57003e-18
-4.01461e-14
-6.17926e-18
-3.97955e-14
-6.76347e-18
-3.94479e-14
-7.32138e-18
-3.91033e-14
-7.85186e-18
-3.87618e-14
-8.35391e-18
-3.84232e-14
-8.82668e-18
-3.80876e-14
-9.26943e-18
-3.77549e-14
-9.68159e-18
-3.74251e-14
-1.00627e-17
-3.70983e-14
-1.04124e-17
-3.67742e-14
-1.07304e-17
-3.6453e-14
-1.10167e-17
-3.61347e-14
-1.12713e-17
-3.58191e-14
-1.14941e-17
-3.55062e-14
-1.16854e-17
-3.51961e-14
-1.18455e-17
-3.48887e-14
-1.19747e-17
-3.4584e-14
-1.20734e-17
-3.42819e-14
-1.21422e-17
-3.39825e-14
-1.21815e-17
-3.36857e-14
-1.2192e-17
-3.33915e-14
-1.21744e-17
-3.30998e-14
-1.21295e-17
-3.28107e-14
-1.20578e-17
-3.25242e-14
-1.19604e-17
-3.22401e-14
-1.1838e-17
-3.19585e-14
-1.16914e-17
-3.16794e-14
-1.15217e-17
-3.14027e-14
-1.13297e-17
-3.11284e-14
-1.11163e-17
-3.08565e-14
-1.08826e-17
-3.0587e-14
-1.06294e-17
-3.03199e-14
-1.03577e-17
-3.0055e-14
-1.00686e-17
-2.97925e-14
-9.76288e-18
-2.95323e-14
-9.44164e-18
-2.92743e-14
-9.10581e-18
-2.90186e-14
-8.75634e-18
-2.87652e-14
-8.39418e-18
-2.85139e-14
-8.02025e-18
-2.82649e-14
-7.63548e-18
-2.8018e-14
-7.24077e-18
-2.77733e-14
-6.837e-18
-2.75307e-14
-6.42504e-18
-2.72902e-14
-6.00573e-18
-2.70518e-14
-5.57988e-18
-2.68155e-14
-5.14831e-18
-2.65813e-14
-4.71179e-18
-2.63491e-14
-4.27106e-18
-2.61189e-14
-3.82686e-18
-2.58908e-14
-3.37989e-18
-2.56646e-14
-2.93083e-18
-2.54404e-14
-2.48032e-18
-2.52182e-14
-2.02899e-18
-2.49979e-14
-1.57744e-18
-2.47796e-14
-1.12625e-18
-2.45631e-14
-6.75944e-19
-2.43485e-14
-2.27062e-19
-2.41358e-14
2.19907e-19
-2.3925e-14
6.64492e-19
-2.3716e-14
1.10625e-18
-2.35088e-14
1.54475e-18
-2.33035e-14
1.97961e-18
-2.30999e-14
2.41045e-18
-2.28981e-14
2.83692e-18
-2.26981e-14
3.25869e-18
-2.24998e-14
3.67546e-18
-2.23032e-14
4.08694e-18
-2.21084e-14
4.49287e-18
-2.19153e-14
4.893e-18
-2.17238e-14
5.2871e-18
-2.1534e-14
-2.13459e-14
5.67499e-18
-9.60022e-19
-4.2688e-14
-1.9082e-18
-4.23151e-14
-2.84134e-18
-4.19455e-14
-3.75644e-18
-4.15791e-14
-4.6507e-18
-4.12159e-14
-5.52151e-18
-4.08559e-14
-6.36645e-18
-4.0499e-14
-7.18331e-18
-4.01453e-14
-7.97007e-18
-3.97947e-14
-8.72489e-18
-3.94471e-14
-9.44612e-18
-3.91026e-14
-1.01323e-17
-3.87611e-14
-1.07822e-17
-3.84225e-14
-1.13946e-17
-3.8087e-14
-1.19687e-17
-3.77543e-14
-1.25036e-17
-3.74246e-14
-1.29988e-17
-3.70978e-14
-1.34538e-17
-3.67738e-14
-1.38682e-17
-3.64526e-14
-1.4242e-17
-3.61343e-14
-1.45751e-17
-3.58187e-14
-1.48675e-17
-3.55059e-14
-1.51195e-17
-3.51958e-14
-1.53315e-17
-3.48885e-14
-1.55037e-17
-3.45838e-14
-1.56369e-17
-3.42818e-14
-1.57315e-17
-3.39824e-14
-1.57883e-17
-3.36856e-14
-1.58081e-17
-3.33915e-14
-1.57918e-17
-3.30998e-14
-1.57403e-17
-3.28108e-14
-1.56545e-17
-3.25243e-14
-1.55356e-17
-3.22402e-14
-1.53846e-17
-3.19587e-14
-1.52025e-17
-3.16796e-14
-1.49907e-17
-3.14029e-14
-1.47503e-17
-3.11286e-14
-1.44824e-17
-3.08568e-14
-1.41884e-17
-3.05873e-14
-1.38695e-17
-3.03202e-14
-1.35269e-17
-3.00554e-14
-1.31619e-17
-2.97929e-14
-1.27759e-17
-2.95327e-14
-1.23699e-17
-2.92748e-14
-1.19454e-17
-2.90191e-14
-1.15035e-17
-2.87656e-14
-1.10455e-17
-2.85144e-14
-1.05726e-17
-2.82653e-14
-1.00859e-17
-2.80185e-14
-9.58679e-18
-2.77738e-14
-9.07627e-18
-2.75312e-14
-8.55551e-18
-2.72907e-14
-8.0256e-18
-2.70523e-14
-7.48762e-18
-2.68161e-14
-6.94261e-18
-2.65818e-14
-6.39158e-18
-2.63496e-14
-5.83551e-18
-2.61195e-14
-5.27534e-18
-2.58913e-14
-4.71198e-18
-2.56652e-14
-4.14631e-18
-2.5441e-14
-3.57917e-18
-2.52188e-14
-3.01137e-18
-2.49985e-14
-2.44367e-18
-2.47801e-14
-1.87682e-18
-2.45637e-14
-1.31151e-18
-2.43491e-14
-7.48412e-19
-2.41364e-14
-1.88158e-19
-2.39256e-14
3.68655e-19
-2.37166e-14
9.21461e-19
-2.35094e-14
1.46973e-18
-2.3304e-14
2.01296e-18
-2.31004e-14
2.55068e-18
-2.28986e-14
3.08245e-18
-2.26986e-14
3.60787e-18
-2.25003e-14
4.12656e-18
-2.23038e-14
4.63816e-18
-2.21089e-14
5.14236e-18
-2.19158e-14
5.63885e-18
-2.17243e-14
6.12737e-18
-2.15345e-14
-2.13464e-14
6.60767e-18
-1.32124e-18
-4.26867e-14
-2.62627e-18
-4.23138e-14
-3.9108e-18
-4.19442e-14
-5.17076e-18
-4.15778e-14
-6.40238e-18
-4.12147e-14
-7.60212e-18
-4.08547e-14
-8.76671e-18
-4.04979e-14
-9.89315e-18
-4.01442e-14
-1.09787e-17
-3.97936e-14
-1.20208e-17
-3.94461e-14
-1.30172e-17
-3.91016e-14
-1.3966e-17
-3.87601e-14
-1.48653e-17
-3.84216e-14
-1.57137e-17
-3.80861e-14
-1.65097e-17
-3.77535e-14
-1.72524e-17
-3.74239e-14
-1.79407e-17
-3.70971e-14
-1.85742e-17
-3.67732e-14
-1.91522e-17
-3.64521e-14
-1.96745e-17
-3.61338e-14
-2.0141e-17
-3.58183e-14
-2.05519e-17
-3.55055e-14
-2.09072e-17
-3.51955e-14
-2.12075e-17
-3.48882e-14
-2.14532e-17
-3.45836e-14
-2.16451e-17
-3.42816e-14
-2.1784e-17
-3.39823e-14
-2.18708e-17
-3.36855e-14
-2.19066e-17
-3.33914e-14
-2.18925e-17
-3.30999e-14
-2.18298e-17
-3.28109e-14
-2.17199e-17
-3.25244e-14
-2.15641e-17
-3.22404e-14
-2.1364e-17
-3.19589e-14
-2.11211e-17
-3.16798e-14
-2.08371e-17
-3.14032e-14
-2.05135e-17
-3.1129e-14
-2.0152e-17
-3.08571e-14
-1.97545e-17
-3.05877e-14
-1.93226e-17
-3.03206e-14
-1.88581e-17
-3.00558e-14
-1.83628e-17
-2.97934e-14
-1.78384e-17
-2.95332e-14
-1.72868e-17
-2.92753e-14
-1.67096e-17
-2.90197e-14
-1.61088e-17
-2.87662e-14
-1.54859e-17
-2.8515e-14
-1.48428e-17
-2.8266e-14
-1.4181e-17
-2.80191e-14
-1.35024e-17
-2.77744e-14
-1.28084e-17
-2.75319e-14
-1.21008e-17
-2.72914e-14
-1.1381e-17
-2.70531e-14
-1.06506e-17
-2.68168e-14
-9.91106e-18
-2.65826e-14
-9.16377e-18
-2.63504e-14
-8.41013e-18
-2.61202e-14
-7.65146e-18
-2.58921e-14
-6.88904e-18
-2.56659e-14
-6.1241e-18
-2.54418e-14
-5.35783e-18
-2.52195e-14
-4.59134e-18
-2.49993e-14
-3.82571e-18
-2.47809e-14
-3.06196e-18
-2.45644e-14
-2.30107e-18
-2.43499e-14
-1.54396e-18
-2.41372e-14
-7.91491e-19
-2.39263e-14
-4.44905e-20
-2.37173e-14
6.96271e-19
-2.35101e-14
1.43007e-18
-2.33047e-14
2.15623e-18
-2.31012e-14
2.87411e-18
-2.28994e-14
3.58314e-18
-2.26993e-14
4.28278e-18
-2.2501e-14
4.97251e-18
-2.23044e-14
5.65188e-18
-2.21096e-14
6.32047e-18
-2.19164e-14
6.9779e-18
-2.1725e-14
7.62382e-18
-2.15352e-14
-2.1347e-14
8.25792e-18
-1.87935e-18
-4.26848e-14
-3.73585e-18
-4.2312e-14
-5.56354e-18
-4.19424e-14
-7.35682e-18
-4.15761e-14
-9.11046e-18
-4.12129e-14
-1.08195e-17
-4.0853e-14
-1.24795e-17
-4.04962e-14
-1.40862e-17
-4.01426e-14
-1.56357e-17
-3.9792e-14
-1.71246e-17
-3.94446e-14
-1.85495e-17
-3.91002e-14
-1.99076e-17
-3.87588e-14
-2.11964e-17
-3.84203e-14
-2.24137e-17
-3.80849e-14
-2.35574e-17
-3.77524e-14
-2.4626e-17
-3.74228e-14
-2.5618e-17
-3.70961e-14
-2.65325e-17
-3.67722e-14
-2.73687e-17
-3.64512e-14
-2.81259e-17
-3.6133e-14
-2.88041e-17
-3.58176e-14
-2.9403e-17
-3.55049e-14
-2.9923e-17
-3.5195e-14
-3.03645e-17
-3.48877e-14
-3.07281e-17
-3.45832e-14
-3.10147e-17
-3.42813e-14
-3.12254e-17
-3.39821e-14
-3.13614e-17
-3.36854e-14
-3.14241e-17
-3.33914e-14
-3.14151e-17
-3.30999e-14
-3.13362e-17
-3.28109e-14
-3.11891e-17
-3.25245e-14
-3.0976e-17
-3.22406e-14
-3.06988e-17
-3.19591e-14
-3.03598e-17
-3.16801e-14
-2.99612e-17
-3.14036e-14
-2.95055e-17
-3.11294e-14
-2.89951e-17
-3.08577e-14
-2.84324e-17
-3.05883e-14
-2.78201e-17
-3.03212e-14
-2.71606e-17
-3.00565e-14
-2.64567e-17
-2.97941e-14
-2.57108e-17
-2.9534e-14
-2.49256e-17
-2.92761e-14
-2.41038e-17
-2.90205e-14
-2.32479e-17
-2.87671e-14
-2.23605e-17
-2.85159e-14
-2.14442e-17
-2.82669e-14
-2.05014e-17
-2.80201e-14
-1.95347e-17
-2.77754e-14
-1.85465e-17
-2.75329e-14
-1.75392e-17
-2.72924e-14
-1.6515e-17
-2.70541e-14
-1.54763e-17
-2.68178e-14
-1.44252e-17
-2.65836e-14
-1.33638e-17
-2.63515e-14
-1.22942e-17
-2.61213e-14
-1.12185e-17
-2.58932e-14
-1.01384e-17
-2.5667e-14
-9.05576e-18
-2.54429e-14
-7.97239e-18
-2.52206e-14
-6.88991e-18
-2.50003e-14
-5.80991e-18
-2.4782e-14
-4.73389e-18
-2.45655e-14
-3.66326e-18
-2.43509e-14
-2.59938e-18
-2.41382e-14
-1.5435e-18
-2.39274e-14
-4.96801e-19
-2.37183e-14
5.39601e-19
-2.35112e-14
1.56468e-18
-2.33058e-14
2.57746e-18
-2.31022e-14
3.57707e-18
-2.29004e-14
4.56269e-18
-2.27003e-14
5.53355e-18
-2.2502e-14
6.48899e-18
-2.23054e-14
7.42836e-18
-2.21105e-14
8.35112e-18
-2.19174e-14
9.25675e-18
-2.17259e-14
1.01448e-17
-2.15361e-14
-2.13479e-14
1.10149e-17
-2.70943e-18
-4.26821e-14
-5.38632e-18
-4.23093e-14
-8.0225e-18
-4.19398e-14
-1.06102e-17
-4.15735e-14
-1.31423e-17
-4.12104e-14
-1.56118e-17
-4.08505e-14
-1.80125e-17
-4.04938e-14
-2.03385e-17
-4.01403e-14
-2.25843e-17
-3.97898e-14
-2.47448e-17
-3.94424e-14
-2.68155e-17
-3.90981e-14
-2.87922e-17
-3.87568e-14
-3.06711e-17
-3.84185e-14
-3.24488e-17
-3.80831e-14
-3.41224e-17
-3.77507e-14
-3.56893e-17
-3.74212e-14
-3.71473e-17
-3.70946e-14
-3.84946e-17
-3.67709e-14
-3.97298e-17
-3.645e-14
-4.08518e-17
-3.61319e-14
-4.186e-17
-3.58166e-14
-4.27539e-17
-3.5504e-14
-4.35335e-17
-3.51942e-14
-4.41992e-17
-3.48871e-14
-4.47517e-17
-3.45826e-14
-4.51917e-17
-3.42809e-14
-4.55207e-17
-3.39817e-14
-4.57401e-17
-3.36852e-14
-4.58517e-17
-3.33912e-14
-4.58576e-17
-3.30999e-14
-4.57601e-17
-3.2811e-14
-4.55617e-17
-3.25247e-14
-4.52652e-17
-3.22409e-14
-4.48735e-17
-3.19595e-14
-4.43897e-17
-3.16806e-14
-4.3817e-17
-3.14041e-14
-4.31591e-17
-3.11301e-14
-4.24193e-17
-3.08584e-14
-4.16013e-17
-3.05891e-14
-4.0709e-17
-3.03221e-14
-3.97461e-17
-3.00575e-14
-3.87165e-17
-2.97951e-14
-3.76243e-17
-2.9535e-14
-3.64733e-17
-2.92772e-14
-3.52675e-17
-2.90217e-14
-3.4011e-17
-2.87683e-14
-3.27076e-17
-2.85172e-14
-3.13614e-17
-2.82683e-14
-2.99762e-17
-2.80215e-14
-2.85558e-17
-2.77768e-14
-2.7104e-17
-2.75343e-14
-2.56246e-17
-2.72939e-14
-2.4121e-17
-2.70556e-14
-2.25968e-17
-2.68193e-14
-2.10555e-17
-2.65852e-14
-1.95003e-17
-2.6353e-14
-1.79344e-17
-2.61229e-14
-1.63609e-17
-2.58947e-14
-1.47828e-17
-2.56686e-14
-1.32028e-17
-2.54444e-14
-1.16236e-17
-2.52222e-14
-1.00478e-17
-2.50019e-14
-8.47793e-18
-2.47835e-14
-6.91614e-18
-2.45671e-14
-5.36464e-18
-2.43525e-14
-3.82549e-18
-2.41398e-14
-2.30057e-18
-2.39289e-14
-7.91676e-19
-2.37199e-14
6.9955e-19
-2.35126e-14
2.17158e-18
-2.33072e-14
3.62299e-18
-2.31036e-14
5.05251e-18
-2.29018e-14
6.45894e-18
-2.27017e-14
7.84123e-18
-2.25034e-14
9.19841e-18
-2.23068e-14
1.05296e-17
-2.21119e-14
1.18341e-17
-2.19187e-14
1.31112e-17
-2.17272e-14
1.43602e-17
-2.15373e-14
-2.13491e-14
1.55809e-17
-3.91392e-18
-4.26782e-14
-7.78178e-18
-4.23054e-14
-1.15926e-17
-4.19359e-14
-1.53362e-17
-4.15697e-14
-1.90025e-17
-4.12067e-14
-2.25826e-17
-4.08469e-14
-2.60676e-17
-4.04903e-14
-2.94495e-17
-4.01369e-14
-3.27206e-17
-3.97865e-14
-3.58738e-17
-3.94393e-14
-3.89026e-17
-3.90951e-14
-4.18007e-17
-3.87539e-14
-4.45627e-17
-3.84157e-14
-4.71832e-17
-3.80805e-14
-4.96578e-17
-3.77482e-14
-5.19821e-17
-3.74189e-14
-5.41526e-17
-3.70925e-14
-5.6166e-17
-3.67689e-14
-5.80195e-17
-3.64481e-14
-5.9711e-17
-3.61302e-14
-6.12387e-17
-3.5815e-14
-6.26012e-17
-3.55027e-14
-6.37979e-17
-3.5193e-14
-6.48282e-17
-3.4886e-14
-6.56925e-17
-3.45818e-14
-6.63913e-17
-3.42802e-14
-6.69256e-17
-3.39812e-14
-6.7297e-17
-3.36848e-14
-6.75075e-17
-3.3391e-14
-6.75594e-17
-3.30998e-14
-6.74556e-17
-3.28111e-14
-6.71992e-17
-3.2525e-14
-6.67938e-17
-3.22413e-14
-6.62434e-17
-3.19601e-14
-6.55522e-17
-3.16813e-14
-6.47249e-17
-3.1405e-14
-6.37663e-17
-3.1131e-14
-6.26816e-17
-3.08595e-14
-6.14762e-17
-3.05903e-14
-6.01557e-17
-3.03234e-14
-5.87259e-17
-3.00589e-14
-5.71926e-17
-2.97966e-14
-5.55621e-17
-2.95367e-14
-5.38404e-17
-2.9279e-14
-5.20338e-17
-2.90235e-14
-5.01486e-17
-2.87702e-14
-4.8191e-17
-2.85192e-14
-4.61673e-17
-2.82703e-14
-4.40837e-17
-2.80235e-14
-4.19464e-17
-2.7779e-14
-3.97614e-17
-2.75365e-14
-3.75348e-17
-2.72961e-14
-3.52725e-17
-2.70579e-14
-3.29799e-17
-2.68216e-14
-3.06629e-17
-2.65875e-14
-2.83266e-17
-2.63553e-14
-2.59764e-17
-2.61252e-14
-2.36171e-17
-2.58971e-14
-2.12536e-17
-2.5671e-14
-1.88905e-17
-2.54468e-14
-1.6532e-17
-2.52246e-14
-1.41823e-17
-2.50043e-14
-1.18454e-17
-2.47859e-14
-9.52489e-18
-2.45694e-14
-7.22421e-18
-2.43548e-14
-4.94659e-18
-2.4142e-14
-2.69502e-18
-2.39311e-14
-4.72285e-19
-2.37221e-14
1.71907e-18
-2.35148e-14
3.8767e-18
-2.33094e-14
5.99848e-18
-2.31057e-14
8.08248e-18
-2.29039e-14
1.0127e-17
-2.27037e-14
1.21304e-17
-2.25054e-14
1.40914e-17
-2.23087e-14
1.60088e-17
-2.21138e-14
1.78816e-17
-2.19205e-14
1.97089e-17
-2.1729e-14
2.149e-17
-2.15391e-14
-2.13509e-14
2.32244e-17
-5.6194e-18
-4.26726e-14
-1.11748e-17
-4.22999e-14
-1.66524e-17
-4.19305e-14
-2.20391e-17
-4.15643e-14
-2.73226e-17
-4.12014e-14
-3.2491e-17
-4.08418e-14
-3.75331e-17
-4.04853e-14
-4.2438e-17
-4.0132e-14
-4.71955e-17
-3.97818e-14
-5.1796e-17
-3.94347e-14
-5.62301e-17
-3.90906e-14
-6.0489e-17
-3.87496e-14
-6.45643e-17
-3.84116e-14
-6.84483e-17
-3.80766e-14
-7.21335e-17
-3.77446e-14
-7.5613e-17
-3.74154e-14
-7.88804e-17
-3.70892e-14
-8.19298e-17
-3.67658e-14
-8.47559e-17
-3.64453e-14
-8.73538e-17
-3.61276e-14
-8.97193e-17
-3.58127e-14
-9.18488e-17
-3.55005e-14
-9.37393e-17
-3.51911e-14
-9.53885e-17
-3.48844e-14
-9.67946e-17
-3.45804e-14
-9.79567e-17
-3.4279e-14
-9.88744e-17
-3.39803e-14
-9.95481e-17
-3.36841e-14
-9.99789e-17
-3.33906e-14
-1.00169e-16
-3.30996e-14
-1.0012e-16
-3.28112e-14
-9.98361e-17
-3.25252e-14
-9.93211e-17
-3.22418e-14
-9.85796e-17
-3.19608e-14
-9.76169e-17
-3.16823e-14
-9.64392e-17
-3.14062e-14
-9.50529e-17
-3.11324e-14
-9.34655e-17
-3.08611e-14
-9.16846e-17
-3.05921e-14
-8.97186e-17
-3.03254e-14
-8.75761e-17
-3.0061e-14
-8.52663e-17
-2.9799e-14
-8.27987e-17
-2.95391e-14
-8.01831e-17
-2.92816e-14
-7.74295e-17
-2.90262e-14
-7.4548e-17
-2.87731e-14
-7.15491e-17
-2.85222e-14
-6.8443e-17
-2.82734e-14
-6.52402e-17
-2.80267e-14
-6.19511e-17
-2.77822e-14
-5.85859e-17
-2.75399e-14
-5.51548e-17
-2.72996e-14
-5.16677e-17
-2.70613e-14
-4.81345e-17
-2.68252e-14
-4.45645e-17
-2.6591e-14
-4.0967e-17
-2.63589e-14
-3.73509e-17
-2.61288e-14
-3.37248e-17
-2.59007e-14
-3.00968e-17
-2.56746e-14
-2.64747e-17
-2.54504e-14
-2.28661e-17
-2.52282e-14
-1.92777e-17
-2.50079e-14
-1.57164e-17
-2.47894e-14
-1.21882e-17
-2.45729e-14
-8.69896e-18
-2.43583e-14
-5.25394e-18
-2.41455e-14
-1.8581e-18
-2.39345e-14
1.48407e-18
-2.37254e-14
4.76844e-18
-2.35181e-14
7.99132e-18
-2.33126e-14
1.11494e-17
-2.31089e-14
1.42397e-17
-2.2907e-14
1.72596e-17
-2.27068e-14
2.02069e-17
-2.25083e-14
2.30797e-17
-2.23116e-14
2.58764e-17
-2.21166e-14
2.85956e-17
-2.19233e-14
3.12365e-17
-2.17316e-14
3.37982e-17
-2.15417e-14
-2.13533e-14
3.62802e-17
-7.9552e-18
-4.26646e-14
-1.58243e-17
-4.2292e-14
-2.3592e-17
-4.19227e-14
-3.12437e-17
-4.15567e-14
-3.87654e-17
-4.11939e-14
-4.61433e-17
-4.08344e-14
-5.33644e-17
-4.04781e-14
-6.04155e-17
-4.01249e-14
-6.7284e-17
-3.97749e-14
-7.39574e-17
-3.9428e-14
-8.04235e-17
-3.90842e-14
-8.66701e-17
-3.87434e-14
-9.26853e-17
-3.84056e-14
-9.84574e-17
-3.80708e-14
-1.03975e-16
-3.7739e-14
-1.09226e-16
-3.74102e-14
-1.142e-16
-3.70842e-14
-1.18886e-16
-3.67611e-14
-1.23274e-16
-3.64409e-14
-1.27353e-16
-3.61235e-14
-1.31114e-16
-3.58089e-14
-1.34548e-16
-3.54971e-14
-1.37647e-16
-3.5188e-14
-1.40402e-16
-3.48816e-14
-1.42808e-16
-3.4578e-14
-1.44857e-16
-3.4277e-14
-1.46546e-16
-3.39786e-14
-1.47869e-16
-3.36828e-14
-1.48824e-16
-3.33897e-14
-1.4941e-16
-3.3099e-14
-1.49625e-16
-3.2811e-14
-1.4947e-16
-3.25254e-14
-1.48948e-16
-3.22423e-14
-1.48063e-16
-3.19617e-14
-1.46819e-16
-3.16835e-14
-1.45222e-16
-3.14078e-14
-1.43281e-16
-3.11344e-14
-1.41004e-16
-3.08633e-14
-1.38402e-16
-3.05947e-14
-1.35487e-16
-3.03283e-14
-1.32272e-16
-3.00642e-14
-1.28771e-16
-2.98025e-14
-1.24998e-16
-2.95429e-14
-1.2097e-16
-2.92856e-14
-1.16704e-16
-2.90305e-14
-1.12216e-16
-2.87776e-14
-1.07524e-16
-2.85269e-14
-1.02647e-16
-2.82783e-14
-9.7603e-17
-2.80318e-14
-9.24104e-17
-2.77874e-14
-8.70876e-17
-2.75452e-14
-8.1653e-17
-2.7305e-14
-7.61247e-17
-2.70669e-14
-7.05204e-17
-2.68308e-14
-6.48575e-17
-2.65967e-14
-5.91528e-17
-2.63646e-14
-5.34226e-17
-2.61346e-14
-4.76826e-17
-2.59065e-14
-4.19476e-17
-2.56803e-14
-3.62319e-17
-2.54561e-14
-3.0549e-17
-2.52339e-14
-2.49116e-17
-2.50135e-14
-1.93314e-17
-2.4795e-14
-1.38196e-17
-2.45784e-14
-8.38641e-18
-2.43637e-14
-3.04112e-18
-2.41508e-14
2.20768e-18
-2.39398e-14
7.35226e-18
-2.37306e-14
1.23857e-17
-2.35232e-14
1.73018e-17
-2.33175e-14
2.20953e-17
-2.31137e-14
2.67615e-17
-2.29116e-14
3.12965e-17
-2.27113e-14
3.56971e-17
-2.25127e-14
3.99606e-17
-2.23159e-14
4.40851e-17
-2.21207e-14
4.80692e-17
-2.19272e-14
5.1912e-17
-2.17355e-14
5.56133e-17
-2.15454e-14
-2.13569e-14
5.9173e-17
-1.0993e-17
-4.26536e-14
-2.18759e-17
-4.22811e-14
-3.26363e-17
-4.19119e-14
-4.32617e-17
-4.15461e-14
-5.37401e-17
-4.11834e-14
-6.40591e-17
-4.08241e-14
-7.42065e-17
-4.04679e-14
-8.41694e-17
-4.0115e-14
-9.39349e-17
-3.97651e-14
-1.03489e-16
-3.94184e-14
-1.12818e-16
-3.90748e-14
-1.21907e-16
-3.87343e-14
-1.30741e-16
-3.83968e-14
-1.39303e-16
-3.80623e-14
-1.47577e-16
-3.77308e-14
-1.55546e-16
-3.74022e-14
-1.6319e-16
-3.70766e-14
-1.70492e-16
-3.67538e-14
-1.77433e-16
-3.6434e-14
-1.83992e-16
-3.6117e-14
-1.90151e-16
-3.58028e-14
-1.95888e-16
-3.54914e-14
-2.01185e-16
-3.51827e-14
-2.0602e-16
-3.48768e-14
-2.10374e-16
-3.45736e-14
-2.14228e-16
-3.42731e-14
-2.17565e-16
-3.39752e-14
-2.20366e-16
-3.368e-14
-2.22615e-16
-3.33874e-14
-2.24299e-16
-3.30974e-14
-2.25404e-16
-3.28099e-14
-2.25921e-16
-3.25249e-14
-2.25841e-16
-3.22424e-14
-2.25159e-16
-3.19624e-14
-2.23873e-16
-3.16848e-14
-2.21983e-16
-3.14096e-14
-2.19494e-16
-3.11369e-14
-2.16413e-16
-3.08664e-14
-2.12751e-16
-3.05983e-14
-2.08522e-16
-3.03325e-14
-2.03744e-16
-3.0069e-14
-1.98439e-16
-2.98078e-14
-1.9263e-16
-2.95487e-14
-1.86344e-16
-2.92919e-14
-1.79611e-16
-2.90372e-14
-1.72462e-16
-2.87847e-14
-1.64929e-16
-2.85344e-14
-1.57047e-16
-2.82861e-14
-1.48851e-16
-2.804e-14
-1.40378e-16
-2.77959e-14
-1.31662e-16
-2.75539e-14
-1.2274e-16
-2.73139e-14
-1.13647e-16
-2.7076e-14
-1.04419e-16
-2.684e-14
-9.50884e-17
-2.6606e-14
-8.56897e-17
-2.6374e-14
-7.62545e-17
-2.6144e-14
-6.68134e-17
-2.59159e-14
-5.73957e-17
-2.56898e-14
-4.80291e-17
-2.54655e-14
-3.87398e-17
-2.52431e-14
-2.95522e-17
-2.50227e-14
-2.04893e-17
-2.48041e-14
-1.15721e-17
-2.45873e-14
-2.81998e-18
-2.43725e-14
5.74944e-18
-2.41594e-14
1.41202e-17
-2.39482e-14
2.22783e-17
-2.37387e-14
3.0211e-17
-2.35311e-14
3.79077e-17
-2.33252e-14
4.53592e-17
-2.31212e-14
5.25579e-17
-2.29188e-14
5.94977e-17
-2.27182e-14
6.61742e-17
-2.25194e-14
7.25842e-17
-2.23223e-14
7.87258e-17
-2.21268e-14
8.45984e-17
-2.19331e-14
9.02027e-17
-2.17411e-14
9.55403e-17
-2.15507e-14
-2.1362e-14
1.00614e-16
-1.46204e-17
-4.2639e-14
-2.91108e-17
-4.22666e-14
-4.34695e-17
-4.18976e-14
-5.76949e-17
-4.15318e-14
-7.17843e-17
-4.11694e-14
-8.57343e-17
-4.08101e-14
-9.95405e-17
-4.04541e-14
-1.13197e-16
-4.01013e-14
-1.26697e-16
-3.97516e-14
-1.40031e-16
-3.94051e-14
-1.53189e-16
-3.90617e-14
-1.66158e-16
-3.87213e-14
-1.78925e-16
-3.8384e-14
-1.91471e-16
-3.80497e-14
-2.03779e-16
-3.77185e-14
-2.15826e-16
-3.73902e-14
-2.27588e-16
-3.70648e-14
-2.39039e-16
-3.67424e-14
-2.50149e-16
-3.64229e-14
-2.60886e-16
-3.61062e-14
-2.71215e-16
-3.57924e-14
-2.81097e-16
-3.54815e-14
-2.90493e-16
-3.51733e-14
-2.9936e-16
-3.48679e-14
-3.07651e-16
-3.45653e-14
-3.1532e-16
-3.42654e-14
-3.22318e-16
-3.39682e-14
-3.28592e-16
-3.36737e-14
-3.34093e-16
-3.33819e-14
-3.38769e-16
-3.30927e-14
-3.42569e-16
-3.28061e-14
-3.45443e-16
-3.2522e-14
-3.47345e-16
-3.22405e-14
-3.48231e-16
-3.19615e-14
-3.48064e-16
-3.1685e-14
-3.46811e-16
-3.14109e-14
-3.44447e-16
-3.11392e-14
-3.40957e-16
-3.08699e-14
-3.36334e-16
-3.0603e-14
-3.30584e-16
-3.03383e-14
-3.23725e-16
-3.00762e-14
-3.15785e-16
-2.98165e-14
-3.06805e-16
-2.95592e-14
-2.96833e-16
-2.93043e-14
-2.85929e-16
-2.90518e-14
-2.74159e-16
-2.88021e-14
-2.61593e-16
-2.85551e-14
-2.48307e-16
-2.8311e-14
-2.34379e-16
-2.807e-14
-2.19885e-16
-2.7832e-14
-2.04906e-16
-2.75972e-14
-1.89518e-16
-2.73655e-14
-1.73798e-16
-2.71367e-14
-1.5782e-16
-2.69106e-14
-1.41657e-16
-2.66867e-14
-1.25376e-16
-2.64648e-14
-1.09046e-16
-2.62444e-14
-9.27279e-17
-2.6025e-14
-7.64827e-17
-2.58064e-14
-6.03669e-17
-2.55891e-14
-4.44334e-17
-2.53724e-14
-2.87319e-17
-2.51549e-14
-1.33082e-17
-2.49361e-14
1.7951e-18
-2.47166e-14
1.65389e-17
-2.44967e-14
3.08874e-17
-2.42767e-14
4.48083e-17
-2.40571e-14
5.82728e-17
-2.38384e-14
7.12554e-17
-2.36209e-14
8.37343e-17
-2.3405e-14
9.56912e-17
-2.31912e-14
1.07111e-16
-2.29795e-14
1.17984e-16
-2.27703e-14
1.28301e-16
-2.25637e-14
1.3806e-16
-2.23596e-14
1.4726e-16
-2.21581e-14
1.55905e-16
-2.19592e-14
1.64001e-16
-2.17628e-14
1.7156e-16
-2.15687e-14
-2.13769e-14
1.78593e-16
-1.83489e-17
-4.26207e-14
-3.65591e-17
-4.22484e-14
-5.46521e-17
-4.18795e-14
-7.26483e-17
-4.15138e-14
-9.05664e-17
-4.11514e-14
-1.08423e-16
-4.07923e-14
-1.26235e-16
-4.04363e-14
-1.44015e-16
-4.00835e-14
-1.61774e-16
-3.97339e-14
-1.79522e-16
-3.93874e-14
-1.97266e-16
-3.90439e-14
-2.1501e-16
-3.87036e-14
-2.32755e-16
-3.83663e-14
-2.505e-16
-3.8032e-14
-2.68238e-16
-3.77007e-14
-2.85959e-16
-3.73724e-14
-3.03649e-16
-3.70471e-14
-3.21289e-16
-3.67248e-14
-3.38852e-16
-3.64053e-14
-3.56308e-16
-3.60888e-14
-3.73617e-16
-3.57751e-14
-3.90733e-16
-3.54644e-14
-4.076e-16
-3.51564e-14
-4.24154e-16
-3.48514e-14
-4.4032e-16
-3.45492e-14
-4.56012e-16
-3.42497e-14
-4.71132e-16
-3.39531e-14
-4.85571e-16
-3.36593e-14
-4.99206e-16
-3.33683e-14
-5.119e-16
-3.308e-14
-5.23505e-16
-3.27945e-14
-5.33859e-16
-3.25117e-14
-5.42788e-16
-3.22316e-14
-5.5011e-16
-3.19542e-14
-5.55632e-16
-3.16795e-14
-5.59162e-16
-3.14074e-14
-5.60506e-16
-3.11379e-14
-5.59482e-16
-3.08709e-14
-5.55923e-16
-3.06065e-14
-5.49705e-16
-4.38852e-14
-5.40882e-16
-1.10769e-12
-5.29419e-16
-3.37928e-12
-5.15378e-16
-6.0277e-12
-4.98912e-16
-9.69423e-12
-4.80215e-16
-1.49698e-11
-4.59502e-16
-2.24128e-11
-4.36996e-16
-3.25844e-11
-4.12917e-16
-4.60111e-11
-3.8748e-16
-6.31184e-11
-3.6089e-16
-8.4156e-11
-3.33338e-16
-1.09133e-10
-3.05005e-16
-1.37766e-10
-2.76056e-16
-1.69446e-10
-2.46646e-16
-2.03272e-10
-2.16919e-16
-2.38086e-10
-1.87011e-16
-2.72529e-10
-1.5705e-16
-3.05199e-10
-1.27157e-16
-3.34774e-10
-9.74532e-17
-3.6036e-10
-6.80613e-17
-3.83805e-10
-3.90914e-17
-4.03133e-10
-1.06354e-17
-4.13193e-10
1.72208e-17
-4.13398e-10
4.43946e-17
-4.04923e-10
7.08014e-17
-3.88954e-10
9.63599e-17
-3.66813e-10
1.20992e-16
-3.39932e-10
1.44626e-16
-3.09765e-10
1.67193e-16
-2.77715e-10
1.88631e-16
-2.45067e-10
2.08883e-16
-2.12938e-10
2.27898e-16
-1.82244e-10
2.45633e-16
-1.53683e-10
2.6205e-16
-1.27735e-10
2.77124e-16
-1.04674e-10
2.9084e-16
-8.45925e-11
3.03193e-16
-6.74377e-11
3.14197e-16
-5.30391e-11
3.23884e-16
-4.11299e-11
-3.12077e-11
3.32309e-16
-2.11686e-17
-4.25995e-14
-4.22043e-17
-4.22274e-14
-6.31587e-17
-4.18585e-14
-8.40812e-17
-4.14929e-14
-1.0502e-16
-4.11305e-14
-1.26021e-16
-4.07713e-14
-1.4713e-16
-4.04152e-14
-1.68392e-16
-4.00623e-14
-1.89853e-16
-3.97124e-14
-2.11555e-16
-3.93657e-14
-2.33542e-16
-3.90219e-14
-2.5586e-16
-3.86813e-14
-2.7855e-16
-3.83436e-14
-3.01657e-16
-3.80089e-14
-3.25223e-16
-3.76772e-14
-3.49291e-16
-3.73484e-14
-3.73903e-16
-3.70225e-14
-3.99099e-16
-3.66996e-14
-4.24915e-16
-3.63795e-14
-4.51388e-16
-3.60623e-14
-4.78547e-16
-3.5748e-14
-5.06416e-16
-3.54365e-14
-5.35011e-16
-3.51278e-14
-5.64339e-16
-3.48221e-14
-5.94392e-16
-3.45191e-14
-6.25145e-16
-3.4219e-14
-6.56551e-16
-3.39217e-14
-6.88534e-16
-3.36273e-14
-7.20985e-16
-3.33358e-14
-7.5375e-16
-3.30472e-14
-7.8662e-16
-3.27616e-14
-8.19321e-16
-3.2479e-14
-8.51495e-16
-3.21994e-14
-8.82684e-16
-3.1923e-14
-9.12308e-16
-3.16498e-14
-9.39636e-16
-3.138e-14
-9.63756e-16
-3.11138e-14
-9.83537e-16
-3.08512e-14
-1.4433e-15
-3.3044e-14
-3.71456e-14
-3.47909e-08
-1.14028e-13
-3.6697e-07
-2.02165e-13
-5.41778e-07
-3.20104e-13
-6.53228e-07
-4.82639e-13
-7.56836e-07
-7.00245e-13
-8.61707e-07
-9.79464e-13
-9.6837e-07
-1.32121e-12
-1.07569e-06
-1.71876e-12
-1.18216e-06
-2.15631e-12
-1.28617e-06
-2.60873e-12
-1.3862e-06
-3.04264e-12
-1.48086e-06
-3.41885e-12
-1.56893e-06
-3.69661e-12
-1.64936e-06
-3.8379e-12
-1.72132e-06
-3.81189e-12
-1.78418e-06
-3.59975e-12
-1.83748e-06
-3.19725e-12
-1.88099e-06
-2.617e-12
-1.91471e-06
-1.89566e-12
-1.93925e-06
-1.04433e-12
-1.95872e-06
-9.3034e-14
-1.9707e-06
8.79863e-13
-1.96996e-06
1.85379e-12
-1.95687e-06
2.76633e-12
-1.93318e-06
3.56344e-12
-1.90007e-06
4.20481e-12
-1.85857e-06
4.66561e-12
-1.8096e-06
4.93641e-12
-1.75405e-06
5.02206e-12
-1.69276e-06
4.93925e-12
-1.62656e-06
4.7135e-12
-1.55627e-06
4.37589e-12
-1.48267e-06
3.95966e-12
-1.40656e-06
3.49729e-12
-1.32869e-06
3.01808e-12
-1.24978e-06
2.5466e-12
-1.17052e-06
2.10184e-12
-1.09153e-06
1.69685e-12
-1.01336e-06
1.33866e-12
-9.36315e-07
-8.59106e-07
1.0233e-12
-2.17868e-17
-4.25777e-14
-4.34502e-17
-4.22057e-14
-6.50565e-17
-4.18369e-14
-8.66699e-17
-4.14713e-14
-1.08354e-16
-4.11088e-14
-1.30172e-16
-4.07495e-14
-1.52187e-16
-4.03932e-14
-1.74466e-16
-4.004e-14
-1.97076e-16
-3.96898e-14
-2.20087e-16
-3.93426e-14
-2.43575e-16
-3.89985e-14
-2.6762e-16
-3.86572e-14
-2.92307e-16
-3.83189e-14
-3.17732e-16
-3.79835e-14
-3.43997e-16
-3.76509e-14
-3.71216e-16
-3.73212e-14
-3.99515e-16
-3.69942e-14
-4.29037e-16
-3.667e-14
-4.59942e-16
-3.63486e-14
-4.9241e-16
-3.60298e-14
-5.26647e-16
-3.57137e-14
-5.62889e-16
-3.54002e-14
-6.01406e-16
-3.50893e-14
-6.42507e-16
-3.4781e-14
-6.86552e-16
-3.44751e-14
-7.33956e-16
-3.41716e-14
-7.85202e-16
-3.38705e-14
-8.40849e-16
-3.35717e-14
-9.01553e-16
-3.32751e-14
-9.68077e-16
-3.29807e-14
-1.04131e-15
-3.26883e-14
-1.12231e-15
-3.2398e-14
-1.21229e-15
-3.21094e-14
-1.31269e-15
-3.18226e-14
-1.4252e-15
-3.15373e-14
-1.55179e-15
-3.12534e-14
-1.6948e-15
-3.09707e-14
-2.00592e-15
-3.07342e-14
-3.25007e-09
-5.27341e-09
-5.21244e-08
-7.68459e-06
-8.1714e-08
-1.00765e-05
-9.85802e-08
-1.0376e-05
-1.12986e-07
-1.05257e-05
-1.26655e-07
-1.06365e-05
-1.39534e-07
-1.07233e-05
-1.51202e-07
-1.07899e-05
-1.61146e-07
-1.08385e-05
-1.68843e-07
-1.08709e-05
-1.73807e-07
-1.08885e-05
-1.75631e-07
-1.08927e-05
-1.74e-07
-1.08847e-05
-1.68712e-07
-1.08658e-05
-1.59696e-07
-1.0837e-05
-1.47003e-07
-1.07992e-05
-1.30805e-07
-1.07532e-05
-1.11389e-07
-1.07e-05
-8.91428e-08
-1.06401e-05
-6.45417e-08
-1.05743e-05
-3.81686e-08
-1.05039e-05
-1.0145e-08
-1.04326e-05
1.87714e-08
-1.03553e-05
4.83515e-08
-1.02716e-05
7.7986e-08
-1.01823e-05
1.06947e-07
-1.00882e-05
1.34608e-07
-9.99001e-06
1.60434e-07
-9.888e-06
1.83981e-07
-9.78246e-06
2.049e-07
-9.67366e-06
2.22928e-07
-9.56176e-06
2.37898e-07
-9.44692e-06
2.49723e-07
-9.32926e-06
2.584e-07
-9.20882e-06
2.63999e-07
-9.0857e-06
2.66657e-07
-8.95994e-06
2.66561e-07
-8.83157e-06
2.63941e-07
-8.70061e-06
2.59049e-07
-8.56706e-06
2.52143e-07
-8.43086e-06
2.43418e-07
-8.29183e-06
-8.14935e-06
2.32422e-07
-1.9574e-17
-4.25581e-14
-3.90222e-17
-4.21863e-14
-5.83889e-17
-4.18176e-14
-7.77171e-17
-4.1452e-14
-9.70481e-17
-4.10895e-14
-1.16422e-16
-4.07301e-14
-1.35877e-16
-4.03737e-14
-1.55453e-16
-4.00204e-14
-1.75185e-16
-3.96701e-14
-1.95112e-16
-3.93227e-14
-2.15269e-16
-3.89783e-14
-2.35692e-16
-3.86368e-14
-2.56414e-16
-3.82982e-14
-2.7747e-16
-3.79624e-14
-2.98893e-16
-3.76295e-14
-3.20711e-16
-3.72993e-14
-3.42954e-16
-3.6972e-14
-3.65645e-16
-3.66473e-14
-3.88807e-16
-3.63254e-14
-4.12453e-16
-3.60062e-14
-4.36593e-16
-3.56896e-14
-4.61224e-16
-3.53756e-14
-4.86334e-16
-3.50642e-14
-5.11896e-16
-3.47554e-14
-5.37862e-16
-3.44491e-14