/*--------------------------------*- C++ -*----------------------------------*\
  =========                 |
  \\      /  F ield         | OpenFOAM: The Open Source CFD Toolbox
   \\    /   O peration     | Website:  https://openfoam.org
    \\  /    A nd           | Version:  8
     \\/     M anipulation  |
\*---------------------------------------------------------------------------*/
FoamFile
{
    version     2.0;
    format      ascii;
    class       volScalarField;
    location    "5000";
    object      Sb;
}
// * * * * * * * * * * * * * * * * * * * * * * * * * * * * * * * * * * * * * //

dimensions      [0 0 0 0 0 0 0];

internalField   nonuniform List<scalar> 
12800
(
0.00200008
0.00200008
0.00200008
0.00200008
0.00200008
0.00200008
0.00200008
0.00200008
0.00200008
0.00200008
0.00200008
0.00200008
0.00200008
0.00200008
0.00200008
0.00200008
0.00200008
0.00200008
0.00200008
0.00200008
0.00200008
0.00200008
0.00200008
0.00200008
0.00200008
0.00200008
0.00200008
0.00200008
0.00200008
0.00200008
0.00200008
0.00200008
0.00200008
0.00200008
0.00200008
0.00200008
0.00200008
0.00200008
0.00200008
0.00200008
0.00200008
0.00200008
0.00200008
0.00200008
0.00200008
0.00200008
0.00200008
0.00200008
0.00200008
0.00200008
0.00200008
0.00200008
0.00200008
0.00200008
0.00200008
0.00200008
0.00200008
0.00200008
0.00200008
0.00200008
0.00200008
0.00200008
0.00200008
0.00200008
0.00200008
0.00200008
0.00200008
0.00200008
0.00200008
0.00200008
0.00200008
0.00200008
0.00200008
0.00200008
0.00200008
0.00200008
0.00200008
0.00200008
0.00200008
0.00200008
0.002
0.002
0.002
0.002
0.002
0.002
0.002
0.002
0.002
0.002
0.002
0.002
0.002
0.002
0.002
0.002
0.002
0.002
0.002
0.002
0.002
0.002
0.002
0.002
0.002
0.002
0.002
0.002
0.002
0.002
0.002
0.002
0.002
0.002
0.002
0.002
0.002
0.002
0.002
0.002
0.002
0.002
0.002
0.002
0.002
0.002
0.002
0.002
0.002
0.002
0.002
0.002
0.002
0.002
0.002
0.002
0.002
0.002
0.002
0.002
0.002
0.002
0.002
0.002
0.002
0.002
0.002
0.002
0.002
0.002
0.002
0.002
0.002
0.002
0.002
0.002
0.002
0.002
0.002
0.002
0.002
0.002
0.002
0.002
0.002
0.002
0.002
0.002
0.002
0.002
0.002
0.002
0.002
0.002
0.002
0.002
0.002
0.002
0.002
0.002
0.002
0.002
0.002
0.002
0.002
0.002
0.002
0.002
0.002
0.002
0.002
0.002
0.002
0.002
0.002
0.002
0.002
0.002
0.002
0.002
0.002
0.002
0.002
0.002
0.002
0.002
0.002
0.002
0.002
0.002
0.002
0.002
0.002
0.002
0.002
0.002
0.002
0.002
0.002
0.002
0.002
0.002
0.002
0.002
0.002
0.002
0.002
0.002
0.002
0.002
0.002
0.002
0.002
0.002
0.002
0.002
0.002
0.002
0.002
0.002
0.002
0.002
0.002
0.002
0.002
0.002
0.002
0.002
0.002
0.002
0.002
0.002
0.002
0.002
0.002
0.002
0.002
0.002
0.002
0.002
0.002
0.002
0.002
0.002
0.002
0.002
0.002
0.002
0.002
0.002
0.002
0.002
0.002
0.002
0.002
0.002
0.002
0.002
0.002
0.002
0.002
0.002
0.002
0.002
0.002
0.002
0.002
0.002
0.002
0.002
0.002
0.002
0.002
0.002
0.002
0.002
0.002
0.002
0.002
0.002
0.002
0.002
0.002
0.002
0.002
0.002
0.002
0.002
0.002
0.002
0.002
0.002
0.002
0.002
0.002
0.002
0.002
0.002
0.002
0.002
0.002
0.002
0.002
0.002
0.002
0.002
0.002
0.002
0.002
0.002
0.002
0.002
0.002
0.002
0.002
0.002
0.002
0.002
0.002
0.002
0.002
0.002
0.002
0.002
0.002
0.002
0.002
0.002
0.002
0.002
0.002
0.002
0.002
0.002
0.002
0.002
0.002
0.002
0.002
0.002
0.002
0.002
0.002
0.002
0.002
0.002
0.002
0.002
0.002
0.002
0.002
0.002
0.002
0.002
0.002
0.002
0.002
0.002
0.002
0.002
0.002
0.002
0.002
0.002
0.002
0.002
0.002
0.002
0.002
0.002
0.002
0.002
0.002
0.002
0.002
0.002
0.002
0.002
0.002
0.002
0.002
0.002
0.002
0.002
0.002
0.002
0.002
0.002
0.002
0.002
0.002
0.002
0.002
0.002
0.002
0.002
0.002
0.002
0.002
0.002
0.002
0.002
0.002
0.002
0.002
0.002
0.002
0.002
0.002
0.002
0.002
0.002
0.002
0.002
0.002
0.002
0.002
0.002
0.002
0.002
0.002
0.002
0.002
0.002
0.002
0.002
0.002
0.002
0.002
0.002
0.002
0.002
0.002
0.002
0.002
0.002
0.002
0.002
0.002
0.002
0.002
0.002
0.002
0.002
0.002
0.002
0.002
0.002
0.002
0.002
0.002
0.002
0.002
0.002
0.002
0.002
0.002
0.002
0.002
0.002
0.002
0.002
0.002
0.002
0.002
0.002
0.002
0.002
0.002
0.002
0.002
0.002
0.002
0.002
0.002
0.002
0.002
0.002
0.002
0.002
0.002
0.002
0.002
0.002
0.002
0.002
0.002
0.002
0.002
0.002
0.002
0.002
0.002
0.002
0.002
0.002
0.002
0.002
0.002
0.002
0.002
0.002
0.002
0.002
0.002
0.002
0.002
0.002
0.002
0.002
0.002
0.002
0.002
0.002
0.002
0.002
0.002
0.002
0.002
0.002
0.002
0.002
0.002
0.002
0.002
0.002
0.002
0.002
0.002
0.002
0.002
0.002
0.002
0.002
0.002
0.002
0.002
0.002
0.002
0.002
0.002
0.002
0.002
0.002
0.002
0.002
0.002
0.002
0.002
0.002
0.002
0.002
0.002
0.002
0.002
0.002
0.002
0.002
0.002
0.002
0.002
0.002
0.002
0.002
0.002
0.002
0.002
0.002
0.002
0.002
0.002
0.002
0.002
0.002
0.002
0.002
0.002
0.002
0.002
0.002
0.002
0.002
0.002
0.002
0.002
0.002
0.002
0.002
0.002
0.002
0.002
0.002
0.002
0.002
0.002
0.002
0.002
0.002
0.002
0.002
0.002
0.002
0.002
0.002
0.002
0.002
0.002
0.002
0.002
0.002
0.002
0.002
0.002
0.002
0.002
0.002
0.002
0.002
0.002
0.002
0.002
0.002
0.002
0.002
0.002
0.002
0.002
0.002
0.002
0.002
0.002
0.002
0.002
0.002
0.002
0.002
0.002
0.002
0.002
0.002
0.002
0.002
0.002
0.002
0.002
0.002
0.002
0.002
0.002
0.002
0.002
0.002
0.002
0.002
0.002
0.002
0.002
0.002
0.002
0.002
0.002
0.002
0.002
0.002
0.002
0.002
0.002
0.002
0.002
0.002
0.002
0.002
0.002
0.002
0.002
0.002
0.002
0.002
0.002
0.002
0.002
0.002
0.002
0.002
0.002
0.002
0.002
0.002
0.002
0.002
0.002
0.002
0.002
0.002
0.002
0.002
0.002
0.002
0.002
0.002
0.002
0.002
0.002
0.002
0.002
0.002
0.002
0.002
0.002
0.002
0.002
0.002
0.002
0.002
0.002
0.002
0.002
0.002
0.002
0.002
0.002
0.002
0.002
0.002
0.002
0.002
0.002
0.002
0.002
0.002
0.002
0.002
0.002
0.002
0.002
0.002
0.002
0.002
0.002
0.002
0.002
0.002
0.002
0.002
0.002
0.002
0.002
0.002
0.002
0.002
0.002
0.002
0.002
0.002
0.002
0.002
0.002
0.002
0.002
0.002
0.002
0.002
0.002
0.002
0.002
0.002
0.002
0.002
0.002
0.002
0.002
0.002
0.002
0.002
0.002
0.002
0.002
0.002
0.002
0.002
0.002
0.002
0.002
0.002
0.002
0.002
0.002
0.002
0.002
0.002
0.002
0.002
0.002
0.002
0.002
0.002
0.002
0.002
0.002
0.002
0.002
0.002
0.002
0.002
0.002
0.002
0.002
0.002
0.002
0.002
0.002
0.002
0.002
0.002
0.002
0.002
0.002
0.002
0.002
0.002
0.002
0.002
0.002
0.002
0.002
0.002
0.002
0.002
0.002
0.002
0.002
0.002
0.002
0.002
0.002
0.002
0.002
0.002
0.002
0.002
0.002
0.002
0.002
0.002
0.002
0.002
0.002
0.002
0.002
0.002
0.002
0.002
0.002
0.002
0.002
0.002
0.002
0.002
0.002
0.002
0.002
0.002
0.002
0.002
0.002
0.002
0.002
0.002
0.002
0.002
0.002
0.002
0.002
0.002
0.002
0.002
0.002
0.002
0.002
0.002
0.002
0.002
0.002
0.002
0.002
0.002
0.002
0.002
0.002
0.002
0.002
0.002
0.002
0.002
0.002
0.002
0.002
0.002
0.002
0.002
0.002
0.00200001
0.00200002
0.00200003
0.00200004
0.00200006
0.00200009
0.00200014
0.00200019
0.00200026
0.00200034
0.00200044
0.00200055
0.00200068
0.00200081
0.00200094
0.00200107
0.00200119
0.0020013
0.0020014
0.00200149
0.00200155
0.00200156
0.00200154
0.00200149
0.00200142
0.00200132
0.00200121
0.00200109
0.00200096
0.00200084
0.00200072
0.0020006
0.0020005
0.00200041
0.00200033
0.00200027
0.00200021
0.00200016
0.00200012
0.002
0.002
0.002
0.002
0.002
0.002
0.002
0.002
0.002
0.002
0.002
0.002
0.002
0.002
0.002
0.002
0.002
0.002
0.002
0.002
0.002
0.002
0.002
0.002
0.002
0.002
0.002
0.002
0.002
0.002
0.002
0.002
0.002
0.002
0.002
0.002
0.002
0.002
0.002
0.00213087
0.00432678
0.00583877
0.00688512
0.00791492
0.00901556
0.0101962
0.0114479
0.0127551
0.0140992
0.0154591
0.0168132
0.0181397
0.0194172
0.020626
0.0217481
0.022767
0.0236701
0.0244482
0.0251012
0.0256849
0.026166
0.026448
0.026527
0.0264258
0.0261609
0.0257468
0.025198
0.0245292
0.023755
0.0228904
0.0219504
0.0209499
0.0199039
0.0188264
0.0177311
0.0166306
0.0155362
0.0144576
0.0134006
0.0123439
0.002
0.002
0.002
0.002
0.002
0.002
0.002
0.002
0.002
0.002
0.002
0.002
0.002
0.002
0.002
0.002
0.002
0.002
0.002
0.002
0.002
0.002
0.002
0.002
0.002
0.002
0.002
0.002
0.002
0.002
0.002
0.002
0.002
0.002
0.002
0.002
0.002
0.002
0.00202603
0.10566
0.231101
0.263655
0.281247
0.296075
0.309889
0.322949
0.335273
0.346834
0.357606
0.367568
0.376707
0.385021
0.392514
0.399196
0.405082
0.41019
0.414543
0.418172
0.421142
0.42376
0.425858
0.42706
0.427386
0.426942
0.425792
0.423979
0.42154
0.418502
0.414893
0.410735
0.40605
0.400858
0.395182
0.389044
0.382465
0.375467
0.368072
0.360296
0.352131
0.343359
0.002
0.002
0.002
0.002
0.002
0.002
0.002
0.002
0.002
0.002
0.002
0.002
0.002
0.002
0.002
0.002
0.002
0.002
0.002
0.002
0.002
0.002
0.002
0.002
0.002
0.002
0.002
0.002
0.002
0.002
0.002
0.002
0.002
0.002
0.002
0.002
0.002
0.00200049
0.0567647
0.634157
0.694854
0.702653
0.707141
0.710868
0.714166
0.717118
0.719765
0.722139
0.724263
0.72616
0.72785
0.729351
0.730678
0.731845
0.732864
0.733747
0.734503
0.735144
0.735696
0.73624
0.736655
0.736928
0.737073
0.737106
0.737039
0.73688
0.736631
0.7363
0.735888
0.735399
0.734835
0.734196
0.733485
0.732701
0.731845
0.730917
0.729916
0.72884
0.727683
0.726425
0.002
0.002
0.002
0.002
0.002
0.002
0.002
0.002
0.002
0.002
0.002
0.002
0.002
0.002
0.002
0.002
0.002
0.002
0.002
0.002
0.002
0.002
0.002
0.002
0.002
0.002
0.002
0.002
0.002
0.002
0.002
0.002
0.002
0.002
0.002
0.002
0.002
0.00311448
0.407045
0.775492
0.784717
0.785984
0.786367
0.786677
0.786976
0.787265
0.787545
0.787813
0.788069
0.78831
0.788536
0.788748
0.788946
0.789128
0.789294
0.789449
0.789589
0.789716
0.789841
0.78999
0.790101
0.790193
0.790268
0.790327
0.790376
0.790415
0.790445
0.790469
0.790487
0.790501
0.790513
0.790525
0.790538
0.790552
0.790571
0.790596
0.790628
0.790667
0.790714
0.790764
0.002
0.002
0.002
0.002
0.002
0.002
0.002
0.002
0.002
0.002
0.002
0.002
0.002
0.002
0.002
0.002
0.002
0.002
0.002
0.002
0.002
0.002
0.002
0.002
0.002
0.002
0.002
0.002
0.002
0.002
0.002
0.002
0.002
0.002
0.002
0.002
0.002
0.00608923
0.488344
0.777078
0.80289
0.80608
0.806293
0.806302
0.806315
0.80634
0.806373
0.806412
0.806458
0.806508
0.806561
0.806618
0.806676
0.806737
0.806799
0.806863
0.806929
0.806997
0.807069
0.807165
0.807253
0.807337
0.807419
0.8075
0.807583
0.807668
0.807756
0.807847
0.807942
0.808043
0.808149
0.808261
0.808381
0.808509
0.808646
0.808793
0.808951
0.809121
0.809304
0.809501
0.002
0.002
0.002
0.002
0.002
0.002
0.002
0.002
0.002
0.002
0.002
0.002
0.002
0.002
0.002
0.002
0.002
0.002
0.002
0.002
0.002
0.002
0.002
0.002
0.002
0.002
0.002
0.002
0.002
0.002
0.002
0.002
0.002
0.002
0.002
0.002
0.002
0.00308413
0.361259
0.722074
0.804379
0.816197
0.816972
0.816955
0.81692
0.816893
0.816876
0.816867
0.816865
0.816869
0.81688
0.816897
0.81692
0.816947
0.81698
0.817018
0.81706
0.817107
0.817161
0.817227
0.817303
0.817378
0.817454
0.817532
0.817614
0.817699
0.817789
0.817882
0.817981
0.818084
0.818192
0.818305
0.818425
0.81855
0.818681
0.818818
0.818962
0.819112
0.819267
0.819426
0.002
0.002
0.002
0.002
0.002
0.002
0.002
0.002
0.002
0.002
0.002
0.002
0.002
0.002
0.002
0.002
0.002
0.002
0.002
0.002
0.002
0.002
0.002
0.002
0.002
0.002
0.002
0.002
0.002
0.002
0.002
0.002
0.002
0.002
0.002
0.002
0.002
0.00207296
0.204092
0.599215
0.781697
0.82125
0.824086
0.824139
0.824102
0.824071
0.824047
0.82403
0.82402
0.824015
0.824016
0.824023
0.824036
0.824053
0.824076
0.824103
0.824135
0.824173
0.824216
0.824266
0.824324
0.824388
0.824455
0.824523
0.824595
0.824669
0.824747
0.824828
0.824913
0.825001
0.825093
0.825189
0.825288
0.825391
0.825498
0.825608
0.825721
0.825835
0.825946
0.826041
0.002
0.002
0.002
0.002
0.002
0.002
0.002
0.002
0.002
0.002
0.002
0.002
0.002
0.002
0.002
0.002
0.002
0.002
0.002
0.002
0.002
0.002
0.002
0.002
0.002
0.002
0.002
0.002
0.002
0.002
0.002
0.002
0.002
0.002
0.002
0.002
0.002
0.00200147
0.0786173
0.461867
0.715289
0.820011
0.829258
0.82953
0.829507
0.829483
0.829464
0.82945
0.829442
0.829439
0.82944
0.829446
0.829457
0.829471
0.829491
0.829514
0.829541
0.829573
0.82961
0.829651
0.829698
0.829748
0.829804
0.829864
0.829925
0.829989
0.830055
0.830124
0.830195
0.830268
0.830344
0.830423
0.830504
0.830587
0.830673
0.83076
0.830846
0.830921
0.830963
0.830924
0.002
0.002
0.002
0.002
0.002
0.002
0.002
0.002
0.002
0.002
0.002
0.002
0.002
0.002
0.002
0.002
0.002
0.002
0.002
0.002
0.002
0.002
0.002
0.002
0.002
0.002
0.002
0.002
0.002
0.002
0.002
0.002
0.002
0.002
0.002
0.002
0.002
0.00200002
0.0199079
0.357597
0.608994
0.806111
0.832976
0.833852
0.833851
0.833836
0.833824
0.833817
0.833814
0.833815
0.833819
0.833827
0.833839
0.833854
0.833872
0.833894
0.83392
0.833948
0.83398
0.834016
0.834055
0.834098
0.834144
0.834194
0.834247
0.834302
0.834359
0.834418
0.834478
0.834539
0.834603
0.834668
0.834735
0.834804
0.834872
0.834938
0.834987
0.83498
0.834811
0.83429
0.002
0.002
0.002
0.002
0.002
0.002
0.002
0.002
0.002
0.002
0.002
0.002
0.002
0.002
0.002
0.002
0.002
0.002
0.002
0.002
0.002
0.002
0.002
0.002
0.002
0.002
0.002
0.002
0.002
0.002
0.002
0.002
0.002
0.002
0.002
0.002
0.002
0.002
0.00475338
0.275584
0.495518
0.768676
0.835001
0.837477
0.837515
0.837508
0.837504
0.837504
0.837506
0.837511
0.837519
0.83753
0.837543
0.837559
0.837578
0.8376
0.837624
0.83765
0.83768
0.837712
0.837746
0.837784
0.837823
0.837865
0.83791
0.837957
0.838007
0.838058
0.83811
0.838162
0.838216
0.838271
0.838327
0.838383
0.838434
0.838464
0.838411
0.838093
0.837065
0.834634
0.002
0.002
0.002
0.002
0.002
0.002
0.002
0.002
0.002
0.002
0.002
0.002
0.002
0.002
0.002
0.002
0.002
0.002
0.002
0.002
0.002
0.002
0.002
0.002
0.002
0.002
0.002
0.002
0.002
0.002
0.002
0.002
0.002
0.002
0.002
0.002
0.002
0.002
0.00219863
0.195526
0.402962
0.702625
0.83404
0.840605
0.840724
0.840726
0.840728
0.840732
0.840739
0.840748
0.840759
0.840772
0.840787
0.840805
0.840824
0.840845
0.840869
0.840894
0.840922
0.840951
0.840983
0.841016
0.841051
0.841088
0.841126
0.841167
0.841209
0.841253
0.841299
0.841345
0.841392
0.841438
0.841484
0.841525
0.84154
0.841449
0.840975
0.839314
0.834691
0.825187
0.002
0.002
0.002
0.002
0.002
0.002
0.002
0.002
0.002
0.002
0.002
0.002
0.002
0.002
0.002
0.002
0.002
0.002
0.002
0.002
0.002
0.002
0.002
0.002
0.002
0.002
0.002
0.002
0.002
0.002
0.002
0.002
0.002
0.002
0.002
0.002
0.002
0.002
0.00200351
0.099131
0.334574
0.616413
0.826928
0.843314
0.843616
0.843626
0.843633
0.843642
0.843652
0.843664
0.843678
0.843693
0.84371
0.843728
0.843748
0.84377
0.843793
0.843818
0.843844
0.843871
0.8439
0.843931
0.843962
0.843995
0.84403
0.844065
0.844102
0.84414
0.844179
0.84422
0.844261
0.8443
0.844333
0.844337
0.844214
0.843588
0.841193
0.833703
0.816222
0.793933
0.002
0.002
0.002
0.002
0.002
0.002
0.002
0.002
0.002
0.002
0.002
0.002
0.002
0.002
0.002
0.002
0.002
0.002
0.002
0.002
0.002
0.002
0.002
0.002
0.002
0.002
0.002
0.002
0.002
0.002
0.002
0.002
0.002
0.002
0.002
0.002
0.002
0.002
0.00200003
0.0254097
0.278994
0.520837
0.808088
0.845555
0.84628
0.846301
0.846311
0.846324
0.846337
0.846351
0.846367
0.846384
0.846403
0.846422
0.846443
0.846465
0.846488
0.846512
0.846537
0.846563
0.846591
0.846619
0.846648
0.846679
0.84671
0.846742
0.846775
0.846808
0.846843
0.846878
0.846912
0.846939
0.846933
0.846783
0.84601
0.842844
0.831815
0.807596
0.779236
0.757214
0.002
0.002
0.002
0.002
0.002
0.002
0.002
0.002
0.002
0.002
0.002
0.002
0.002
0.002
0.002
0.002
0.002
0.002
0.002
0.002
0.002
0.002
0.002
0.002
0.002
0.002
0.002
0.002
0.002
0.002
0.002
0.002
0.002
0.002
0.002
0.002
0.002
0.002
0.002
0.00527458
0.226067
0.429089
0.771876
0.847076
0.848775
0.848812
0.848827
0.848841
0.848857
0.848874
0.848891
0.84891
0.848929
0.84895
0.848971
0.848993
0.849016
0.84904
0.849065
0.84909
0.849116
0.849143
0.849171
0.849199
0.849228
0.849258
0.849288
0.849318
0.849348
0.849376
0.849395
0.84938
0.849201
0.848282
0.844263
0.830082
0.802058
0.772254
0.749512
0.732709
0.002
0.002
0.002
0.002
0.002
0.002
0.002
0.002
0.002
0.002
0.002
0.002
0.002
0.002
0.002
0.002
0.002
0.002
0.002
0.002
0.002
0.002
0.002
0.002
0.002
0.002
0.002
0.002
0.002
0.002
0.002
0.002
0.002
0.002
0.002
0.002
0.002
0.002
0.002
0.00218929
0.168221
0.352878
0.718001
0.847241
0.851133
0.851204
0.851221
0.851238
0.851255
0.851274
0.851293
0.851313
0.851333
0.851355
0.851376
0.851399
0.851422
0.851446
0.85147
0.851495
0.85152
0.851546
0.851572
0.851599
0.851626
0.851654
0.851681
0.851707
0.851731
0.851743
0.851711
0.851493
0.850424
0.845625
0.829539
0.800328
0.771421
0.7499
0.733627
0.719417
0.002
0.002
0.002
0.002
0.002
0.002
0.002
0.002
0.002
0.002
0.002
0.002
0.002
0.002
0.002
0.002
0.002
0.002
0.002
0.002
0.002
0.002
0.002
0.002
0.002
0.002
0.002
0.002
0.002
0.002
0.002
0.002
0.002
0.002
0.002
0.002
0.002
0.002
0.002
0.00200214
0.0903987
0.292594
0.650034
0.844724
0.853366
0.853504
0.853524
0.853543
0.853563
0.853583
0.853603
0.853624
0.853646
0.853668
0.85369
0.853713
0.853736
0.85376
0.853784
0.853809
0.853834
0.853859
0.853884
0.853909
0.853935
0.853959
0.853983
0.854002
0.854007
0.853956
0.853684
0.852448
0.847172
0.83045
0.801806
0.774592
0.754715
0.739745
0.726669
0.713417
0.002
0.002
0.002
0.002
0.002
0.002
0.002
0.002
0.002
0.002
0.002
0.002
0.002
0.002
0.002
0.002
0.002
0.002
0.002
0.002
0.002
0.002
0.002
0.002
0.002
0.002
0.002
0.002
0.002
0.002
0.002
0.002
0.002
0.002
0.002
0.002
0.002
0.002
0.002
0.00200001
0.0212002
0.241946
0.570313
0.837119
0.855457
0.855736
0.855761
0.855782
0.855803
0.855824
0.855846
0.855868
0.855891
0.855914
0.855937
0.85596
0.855984
0.856007
0.856031
0.856056
0.85608
0.856104
0.856128
0.856152
0.856175
0.856196
0.856211
0.856207
0.856136
0.85581
0.85443
0.848918
0.832503
0.805459
0.780219
0.762006
0.748426
0.736628
0.724799
0.711737
0.002
0.002
0.002
0.002
0.002
0.002
0.002
0.002
0.002
0.002
0.002
0.002
0.002
0.002
0.002
0.002
0.002
0.002
0.002
0.002
0.002
0.002
0.002
0.002
0.002
0.002
0.002
0.002
0.002
0.002
0.002
0.002
0.002
0.002
0.002
0.002
0.002
0.002
0.002
0.002
0.00414072
0.194282
0.481732
0.820835
0.85734
0.857919
0.857949
0.857972
0.857995
0.858017
0.85804
0.858064
0.858087
0.858111
0.858134
0.858158
0.858182
0.858206
0.85823
0.858253
0.858277
0.8583
0.858323
0.858345
0.858363
0.858373
0.85836
0.858267
0.857885
0.856386
0.850826
0.835263
0.810333
0.787174
0.770589
0.758417
0.74797
0.737518
0.725957
0.712457
0.002
0.002
0.002
0.002
0.002
0.002
0.002
0.002
0.002
0.002
0.002
0.002
0.002
0.002
0.002
0.002
0.002
0.002
0.002
0.002
0.002
0.002
0.002
0.002
0.002
0.002
0.002
0.002
0.002
0.002
0.002
0.002
0.002
0.002
0.002
0.002
0.002
0.002
0.002
0.002
0.00206703
0.142616
0.391164
0.792
0.858849
0.860064
0.860104
0.860128
0.860152
0.860176
0.8602
0.860224
0.860249
0.860273
0.860297
0.860321
0.860345
0.860369
0.860393
0.860416
0.860439
0.86046
0.86048
0.860496
0.860501
0.860476
0.860358
0.85992
0.858325
0.852839
0.838397
0.815763
0.794667
0.779613
0.768785
0.759709
0.75076
0.740873
0.72916
0.714714
0.002
0.002
0.002
0.002
0.002
0.002
0.002
0.002
0.002
0.002
0.002
0.002
0.002
0.002
0.002
0.002
0.002
0.002
0.002
0.002
0.002
0.002
0.002
0.002
0.002
0.002
0.002
0.002
0.002
0.002
0.002
0.002
0.002
0.002
0.002
0.002
0.002
0.002
0.002
0.002
0.00200042
0.066492
0.308138
0.747924
0.859607
0.862175
0.862235
0.862261
0.862286
0.862311
0.862336
0.862361
0.862386
0.862411
0.862436
0.86246
0.862484
0.862508
0.862531
0.862553
0.862573
0.862591
0.862603
0.862602
0.862564
0.862418
0.86192
0.860245
0.854909
0.841676
0.821324
0.802197
0.788526
0.778887
0.771054
0.763538
0.755389
0.745814
0.733892
0.718339
0.002
0.002
0.002
0.002
0.002
0.002
0.002
0.002
0.002
0.002
0.002
0.002
0.002
0.002
0.002
0.002
0.002
0.002
0.002
0.002
0.002
0.002
0.002
0.002
0.002
0.002
0.002
0.002
0.002
0.002
0.002
0.002
0.002
0.002
0.002
0.002
0.002
0.002
0.002
0.002
0.002
0.0128395
0.238448
0.687552
0.858805
0.86425
0.864351
0.864379
0.864405
0.864432
0.864458
0.864483
0.864509
0.864534
0.864559
0.864583
0.864607
0.864629
0.86465
0.864669
0.864685
0.864692
0.864682
0.864628
0.864448
0.863888
0.862139
0.856978
0.844918
0.826725
0.80945
0.79702
0.78839
0.781598
0.775294
0.768649
0.761031
0.751743
0.739754
0.723299
0.002
0.002
0.002
0.002
0.002
0.002
0.002
0.002
0.002
0.002
0.002
0.002
0.002
0.002
0.002
0.002
0.002
0.002
0.002
0.002
0.002
0.002
0.002
0.002
0.002
0.002
0.002
0.002
0.002
0.002
0.002
0.002
0.002
0.002
0.002
0.002
0.002
0.002
0.002
0.002
0.002
0.00280216
0.17971
0.61055
0.854785
0.866271
0.86646
0.86649
0.866518
0.866545
0.866571
0.866598
0.866624
0.866649
0.866673
0.866697
0.866719
0.866739
0.866756
0.866767
0.866769
0.866747
0.866672
0.866451
0.865818
0.863987
0.858983
0.847982
0.83177
0.816242
0.804949
0.797179
0.791231
0.785894
0.78044
0.774367
0.767186
0.758235
0.746391
0.729457
0.002
0.002
0.002
0.002
0.002
0.002
0.002
0.002
0.002
0.002
0.002
0.002
0.002
0.002
0.002
0.002
0.002
0.002
0.002
0.002
0.002
0.002
0.002
0.002
0.002
0.002
0.002
0.002
0.002
0.002
0.002
0.002
0.002
0.002
0.002
0.002
0.002
0.002
0.002
0.002
0.002
0.00200812
0.123249
0.516598
0.844387
0.868187
0.868567
0.868601
0.86863
0.868658
0.868685
0.868711
0.868737
0.868762
0.868785
0.868806
0.868824
0.868838
0.868844
0.868836
0.8688
0.868696
0.868424
0.867702
0.865766
0.860868
0.850779
0.836348
0.822478
0.812265
0.805251
0.799994
0.795417
0.790878
0.785967
0.780335
0.773566
0.765016
0.753524
0.736611
0.002
0.002
0.002
0.002
0.002
0.002
0.002
0.002
0.002
0.002
0.002
0.002
0.002
0.002
0.002
0.002
0.002
0.002
0.002
0.002
0.002
0.002
0.002
0.002
0.002
0.002
0.002
0.002
0.002
0.002
0.002
0.002
0.002
0.002
0.002
0.002
0.002
0.002
0.002
0.002
0.002
0.00200004
0.0427508
0.407694
0.822385
0.869871
0.870679
0.87072
0.870749
0.870777
0.870804
0.87083
0.870854
0.870876
0.870896
0.870911
0.87092
0.870919
0.870898
0.87084
0.870699
0.870359
0.869523
0.867446
0.862594
0.853267
0.840429
0.828134
0.818975
0.812657
0.807981
0.804007
0.80017
0.796127
0.791619
0.786372
0.780012
0.771928
0.760968
0.744557
0.002
0.002
0.002
0.002
0.002
0.002
0.002
0.002
0.002
0.002
0.002
0.002
0.002
0.002
0.002
0.002
0.002
0.002
0.002
0.002
0.002
0.002
0.002
0.002
0.002
0.002
0.002
0.002
0.002
0.002
0.002
0.002
0.002
0.002
0.002
0.002
0.002
0.002
0.002
0.002
0.002
0.002
0.00708996
0.294558
0.782416
0.871007
0.872795
0.872851
0.87288
0.872908
0.872933
0.872957
0.872978
0.872994
0.873005
0.873007
0.872994
0.872955
0.872866
0.872672
0.872241
0.871257
0.868995
0.864123
0.855438
0.844033
0.833235
0.825115
0.819461
0.815293
0.811808
0.808517
0.805129
0.801442
0.79727
0.792383
0.786442
0.778877
0.768598
0.753105
0.002
0.002
0.002
0.002
0.002
0.002
0.002
0.002
0.002
0.002
0.002
0.002
0.002
0.002
0.002
0.002
0.002
0.002
0.002
0.002
0.002
0.002
0.002
0.002
0.002
0.002
0.002
0.002
0.002
0.002
0.002
0.002
0.002
0.002
0.002
0.002
0.002
0.002
0.002
0.002
0.002
0.002
0.00219345
0.196833
0.720404
0.870845
0.874909
0.874998
0.875027
0.875052
0.875074
0.875093
0.875105
0.875109
0.8751
0.875069
0.875003
0.874869
0.8746
0.874046
0.872868
0.870364
0.86542
0.857295
0.847206
0.837836
0.830741
0.825735
0.822026
0.818949
0.816088
0.813199
0.810122
0.806722
0.802852
0.798314
0.792803
0.785801
0.776313
0.762056
0.002
0.002
0.002
0.002
0.002
0.002
0.002
0.002
0.002
0.002
0.002
0.002
0.002
0.002
0.002
0.002
0.002
0.002
0.002
0.002
0.002
0.002
0.002
0.002
0.002
0.002
0.002
0.002
0.002
0.002
0.002
0.002
0.002
0.002
0.002
0.002
0.002
0.002
0.002
0.002
0.002
0.002
0.00200078
0.117446
0.635376
0.867668
0.876996
0.877163
0.877191
0.877211
0.877225
0.877231
0.877224
0.877197
0.877141
0.877032
0.876832
0.876456
0.875731
0.874297
0.871495
0.866453
0.858873
0.850033
0.842028
0.835934
0.831559
0.828274
0.825545
0.82303
0.820527
0.817907
0.815072
0.811922
0.808338
0.804146
0.799078
0.792676
0.784067
0.771272
0.002
0.002
0.002
0.002
0.002
0.002
0.002
0.002
0.002
0.002
0.002
0.002
0.002
0.002
0.002
0.002
0.002
0.002
0.002
0.002
0.002
0.002
0.002
0.002
0.002
0.002
0.002
0.002
0.002
0.002
0.002
0.002
0.002
0.002
0.002
0.002
0.002
0.002
0.002
0.002
0.002
0.002
0.00200001
0.0319814
0.526354
0.857806
0.878992
0.879348
0.879371
0.879379
0.879374
0.879349
0.879296
0.879198
0.879025
0.878724
0.878191
0.877226
0.875461
0.872311
0.867194
0.86021
0.852605
0.845908
0.840779
0.837013
0.834125
0.8317
0.82947
0.82727
0.824998
0.822581
0.819953
0.817036
0.813731
0.809893
0.805294
0.799546
0.791914
0.780774
0.002
0.002
0.002
0.002
0.002
0.002
0.002
0.002
0.002
0.002
0.002
0.002
0.002
0.002
0.002
0.002
0.002
0.002
0.002
0.002
0.002
0.002
0.002
0.002
0.002
0.002
0.002
0.002
0.002
0.002
0.002
0.002
0.002
0.002
0.002
0.002
0.002
0.002
0.002
0.002
0.002
0.002
0.002
0.00505052
0.393401
0.834606
0.880724
0.881543
0.881555
0.881532
0.88148
0.881383
0.881218
0.880943
0.880486
0.879719
0.878419
0.876229
0.872701
0.867585
0.8613
0.854939
0.8495
0.845301
0.842128
0.839619
0.837469
0.835477
0.833515
0.831506
0.829395
0.827136
0.824679
0.821966
0.818916
0.815411
0.811264
0.806156
0.79949
0.789988
0.002
0.002
0.002
0.002
0.002
0.002
0.002
0.002
0.002
0.002
0.002
0.002
0.002
0.002
0.002
0.002
0.002
0.002
0.002
0.002
0.002
0.002
0.002
0.002
0.002
0.002
0.002
0.002
0.002
0.002
0.002
0.002
0.002
0.002
0.002
0.002
0.002
0.002
0.002
0.002
0.002
0.002
0.002
0.00205368
0.249663
0.789639
0.881741
0.883709
0.883695
0.883598
0.883429
0.883155
0.882716
0.882017
0.880906
0.879153
0.876465
0.872608
0.867673
0.862248
0.857144
0.852892
0.849564
0.846956
0.844808
0.842911
0.841123
0.839353
0.837544
0.835656
0.833655
0.83151
0.829186
0.826636
0.8238
0.820584
0.816841
0.812321
0.806552
0.798545
0.002
0.002
0.002
0.002
0.002
0.002
0.002
0.002
0.002
0.002
0.002
0.002
0.002
0.002
0.002
0.002
0.002
0.002
0.002
0.002
0.002
0.002
0.002
0.002
0.002
0.002
0.002
0.002
0.002
0.002
0.002
0.002
0.002
0.002
0.002
0.002
0.002
0.002
0.002
0.002
0.002
0.002
0.002
0.00200013
0.128923
0.716974
0.880857
0.885735
0.885662
0.885378
0.884926
0.88423
0.883171
0.881588
0.879294
0.876145
0.872181
0.867734
0.86334
0.859457
0.856265
0.853701
0.851595
0.849774
0.848104
0.846495
0.844885
0.843234
0.841514
0.839703
0.837777
0.835714
0.83349
0.831069
0.828408
0.825441
0.822065
0.818102
0.813213
0.806668
0.002
0.002
0.002
0.002
0.002
0.002
0.002
0.002
0.002
0.002
0.002
0.002
0.002
0.002
0.002
0.002
0.002
0.002
0.002
0.002
0.002
0.002
0.002
0.002
0.002
0.002
0.002
0.002
0.002
0.002
0.002
0.002
0.002
0.002
0.002
0.002
0.002
0.002
0.002
0.002
0.002
0.002
0.002
0.002
0.0305678
0.613059
0.874912
0.887322
0.887133
0.886417
0.885344
0.8838
0.881669
0.878886
0.875525
0.871839
0.86819
0.86489
0.862083
0.859754
0.8578
0.8561
0.854551
0.853075
0.851617
0.85014
0.848617
0.847028
0.845357
0.843588
0.841703
0.839687
0.837519
0.835175
0.832623
0.82982
0.826704
0.823168
0.819009
0.81378
0.002
0.002
0.002
0.002
0.002
0.002
0.002
0.002
0.002
0.002
0.002
0.002
0.002
0.002
0.002
0.002
0.002
0.002
0.002
0.002
0.002
0.002
0.002
0.002
0.002
0.002
0.002
0.002
0.002
0.002
0.002
0.002
0.002
0.002
0.002
0.002
0.002
0.002
0.002
0.002
0.002
0.002
0.002
0.002
0.00453664
0.467922
0.854927
0.887723
0.887517
0.886015
0.883975
0.881424
0.878477
0.875359
0.872337
0.869607
0.867251
0.86525
0.863531
0.862009
0.860608
0.859269
0.857949
0.856617
0.855251
0.853833
0.85235
0.850788
0.849135
0.847377
0.845501
0.843491
0.84133
0.838997
0.836468
0.833714
0.830695
0.827358
0.823615
0.81929
0.002
0.002
0.002
0.002
0.002
0.002
0.002
0.002
0.002
0.002
0.002
0.002
0.002
0.002
0.002
0.002
0.002
0.002
0.002
0.002
0.002
0.002
0.002
0.002
0.002
0.002
0.002
0.002
0.002
0.002
0.002
0.002
0.002
0.002
0.002
0.002
0.002
0.002
0.002
0.002
0.002
0.002
0.002
0.002
0.00201057
0.267112
0.796097
0.885083
0.886492
0.884336
0.881783
0.879145
0.876624
0.874355
0.872381
0.870678
0.869189
0.867851
0.866605
0.865409
0.864229
0.86304
0.861825
0.860569
0.859262
0.857891
0.856447
0.854919
0.853296
0.851565
0.849712
0.847723
0.845579
0.843261
0.840747
0.838011
0.835025
0.831763
0.8282
0.824326
0.002
0.002
0.002
0.002
0.002
0.002
0.002
0.002
0.002
0.002
0.002
0.002
0.002
0.002
0.002
0.002
0.002
0.002
0.002
0.002
0.002
0.002
0.002
0.002
0.002
0.002
0.002
0.002
0.002
0.002
0.002
0.002
0.002
0.002
0.002
0.002
0.002
0.002
0.002
0.002
0.002
0.002
0.002
0.002
0.00200004
0.0927235
0.653021
0.872291
0.885235
0.883705
0.881626
0.8797
0.877997
0.876507
0.875191
0.874002
0.872895
0.871837
0.870798
0.869761
0.86871
0.867634
0.866523
0.865369
0.864164
0.8629
0.861569
0.86016
0.858665
0.857071
0.855367
0.853536
0.851564
0.84943
0.847111
0.844582
0.841811
0.838764
0.835403
0.831688
0.002
0.002
0.002
0.002
0.002
0.002
0.002
0.002
0.002
0.002
0.002
0.002
0.002
0.002
0.002
0.002
0.002
0.002
0.002
0.002
0.002
0.002
0.002
0.002
0.002
0.002
0.002
0.002
0.002
0.002
0.002
0.002
0.002
0.002
0.002
0.002
0.002
0.002
0.002
0.002
0.002
0.002
0.002
0.002
0.002
0.0120724
0.399542
0.812061
0.883179
0.885416
0.884079
0.882723
0.881503
0.880398
0.87938
0.878419
0.877493
0.876583
0.875675
0.874758
0.873825
0.872866
0.871875
0.870847
0.869773
0.868648
0.867463
0.866211
0.864881
0.863463
0.861945
0.860311
0.858545
0.856626
0.854529
0.852226
0.84968
0.846848
0.84368
0.840117
0.002
0.002
0.002
0.002
0.002
0.002
0.002
0.002
0.002
0.002
0.002
0.002
0.002
0.002
0.002
0.002
0.002
0.002
0.002
0.002
0.002
0.002
0.002
0.002
0.002
0.002
0.002
0.002
0.002
0.002
0.002
0.002
0.002
0.002
0.002
0.002
0.002
0.002
0.002
0.002
0.002
0.002
0.002
0.002
0.002
0.00237236
0.170296
0.614026
0.864616
0.887953
0.887973
0.886945
0.885952
0.885026
0.884148
0.883304
0.882479
0.881662
0.880844
0.880017
0.879174
0.87831
0.877418
0.876493
0.875529
0.874519
0.873457
0.872334
0.871141
0.869868
0.868502
0.867029
0.865432
0.86369
0.861778
0.859663
0.857307
0.854662
0.851664
0.848236
0.002
0.002
0.002
0.002
0.002
0.002
0.002
0.002
0.002
0.002
0.002
0.002
0.002
0.002
0.002
0.002
0.002
0.002
0.002
0.002
0.002
0.002
0.002
0.002
0.002
0.002
0.002
0.002
0.002
0.002
0.002
0.002
0.002
0.002
0.002
0.002
0.002
0.002
0.002
0.002
0.002
0.002
0.002
0.002
0.002
0.00200035
0.0984441
0.31732
0.752867
0.884912
0.892218
0.891642
0.890783
0.889956
0.889162
0.888391
0.887634
0.886883
0.886132
0.885373
0.884602
0.883813
0.883001
0.88216
0.881285
0.880369
0.879406
0.878388
0.877306
0.87615
0.874908
0.873565
0.872103
0.870502
0.868735
0.866769
0.864563
0.862062
0.859198
0.855876
0.002
0.002
0.002
0.002
0.002
0.002
0.002
0.002
0.002
0.002
0.002
0.002
0.002
0.002
0.002
0.002
0.002
0.002
0.002
0.002
0.002
0.002
0.002
0.002
0.002
0.002
0.002
0.002
0.002
0.002
0.002
0.002
0.002
0.002
0.002
0.002
0.002
0.002
0.002
0.002
0.002
0.002
0.002