/*--------------------------------*- C++ -*----------------------------------*\
  =========                 |
  \\      /  F ield         | OpenFOAM: The Open Source CFD Toolbox
   \\    /   O peration     | Website:  https://openfoam.org
    \\  /    A nd           | Version:  8
     \\/     M anipulation  |
\*---------------------------------------------------------------------------*/
FoamFile
{
    version     2.0;
    format      ascii;
    class       volVectorField;
    location    "5000";
    object      Ua;
}
// * * * * * * * * * * * * * * * * * * * * * * * * * * * * * * * * * * * * * //

dimensions      [0 1 -1 0 0 0 0];

internalField   nonuniform List<vector> 
12800
(
(-1.45167e-07 2.09537e-07 0)
(-4.33697e-07 2.08758e-07 0)
(-7.18127e-07 2.07223e-07 0)
(-9.97498e-07 2.04957e-07 0)
(-1.27091e-06 2.01987e-07 0)
(-1.53754e-06 1.98341e-07 0)
(-1.79659e-06 1.94049e-07 0)
(-2.04737e-06 1.89143e-07 0)
(-2.28921e-06 1.83653e-07 0)
(-2.52152e-06 1.77613e-07 0)
(-2.74378e-06 1.71056e-07 0)
(-2.95551e-06 1.64016e-07 0)
(-3.15629e-06 1.56526e-07 0)
(-3.34576e-06 1.48622e-07 0)
(-3.52361e-06 1.40337e-07 0)
(-3.68959e-06 1.31705e-07 0)
(-3.84349e-06 1.22761e-07 0)
(-3.98516e-06 1.13537e-07 0)
(-4.11448e-06 1.04067e-07 0)
(-4.23139e-06 9.43828e-08 0)
(-4.33587e-06 8.45166e-08 0)
(-4.42793e-06 7.44994e-08 0)
(-4.50761e-06 6.43613e-08 0)
(-4.57503e-06 5.41317e-08 0)
(-4.63028e-06 4.3839e-08 0)
(-4.67353e-06 3.35106e-08 0)
(-4.70495e-06 2.3173e-08 0)
(-4.72475e-06 1.28514e-08 0)
(-4.73317e-06 2.57012e-09 0)
(-4.73045e-06 -7.64777e-09 0)
(-4.71688e-06 -1.77803e-08 0)
(-4.69273e-06 -2.78067e-08 0)
(-4.65833e-06 -3.77072e-08 0)
(-4.61398e-06 -4.74635e-08 0)
(-4.56003e-06 -5.70583e-08 0)
(-4.49682e-06 -6.64753e-08 0)
(-4.4247e-06 -7.56996e-08 0)
(-4.34404e-06 -8.47175e-08 0)
(-4.2552e-06 -9.35161e-08 0)
(-4.15855e-06 -1.02084e-07 0)
(-4.05447e-06 -1.1041e-07 0)
(-3.94333e-06 -1.18486e-07 0)
(-3.82552e-06 -1.26302e-07 0)
(-3.7014e-06 -1.33851e-07 0)
(-3.57135e-06 -1.41128e-07 0)
(-3.43574e-06 -1.48125e-07 0)
(-3.29495e-06 -1.54839e-07 0)
(-3.14933e-06 -1.61266e-07 0)
(-2.99925e-06 -1.67402e-07 0)
(-2.84505e-06 -1.73247e-07 0)
(-2.68709e-06 -1.78797e-07 0)
(-2.52569e-06 -1.84053e-07 0)
(-2.36121e-06 -1.89014e-07 0)
(-2.19395e-06 -1.93682e-07 0)
(-2.02423e-06 -1.98057e-07 0)
(-1.85236e-06 -2.0214e-07 0)
(-1.67864e-06 -2.05935e-07 0)
(-1.50335e-06 -2.09445e-07 0)
(-1.32678e-06 -2.12671e-07 0)
(-1.14919e-06 -2.15618e-07 0)
(-9.70839e-07 -2.18291e-07 0)
(-7.91978e-07 -2.20693e-07 0)
(-6.12847e-07 -2.22829e-07 0)
(-4.33674e-07 -2.24704e-07 0)
(-2.54678e-07 -2.26324e-07 0)
(-7.60707e-08 -2.27693e-07 0)
(1.0195e-07 -2.28818e-07 0)
(2.79194e-07 -2.29704e-07 0)
(4.55479e-07 -2.30358e-07 0)
(6.30637e-07 -2.30786e-07 0)
(8.04503e-07 -2.30994e-07 0)
(9.76926e-07 -2.30987e-07 0)
(1.14776e-06 -2.30774e-07 0)
(1.31688e-06 -2.3036e-07 0)
(1.48414e-06 -2.29751e-07 0)
(1.64944e-06 -2.28955e-07 0)
(1.81266e-06 -2.27978e-07 0)
(1.9737e-06 -2.26826e-07 0)
(2.13247e-06 -2.25506e-07 0)
(2.28887e-06 -2.24023e-07 0)
(-1.67755e-07 6.61215e-07 0)
(-5.01186e-07 6.58764e-07 0)
(-8.29894e-07 6.53935e-07 0)
(-1.15278e-06 6.46806e-07 0)
(-1.46882e-06 6.37461e-07 0)
(-1.77704e-06 6.2599e-07 0)
(-2.07657e-06 6.12486e-07 0)
(-2.36658e-06 5.97047e-07 0)
(-2.64633e-06 5.79771e-07 0)
(-2.91513e-06 5.60763e-07 0)
(-3.17238e-06 5.40127e-07 0)
(-3.41752e-06 5.17968e-07 0)
(-3.65008e-06 4.94394e-07 0)
(-3.86964e-06 4.69512e-07 0)
(-4.07585e-06 4.43429e-07 0)
(-4.2684e-06 4.16254e-07 0)
(-4.44707e-06 3.88091e-07 0)
(-4.61167e-06 3.59047e-07 0)
(-4.76207e-06 3.29225e-07 0)
(-4.89819e-06 2.98727e-07 0)
(-5.02e-06 2.67654e-07 0)
(-5.12752e-06 2.36103e-07 0)
(-5.2208e-06 2.0417e-07 0)
(-5.29996e-06 1.71947e-07 0)
(-5.36511e-06 1.39524e-07 0)
(-5.41645e-06 1.06988e-07 0)
(-5.45417e-06 7.44217e-08 0)
(-5.47851e-06 4.19057e-08 0)
(-5.48974e-06 9.51646e-09 0)
(-5.48815e-06 -2.26727e-08 0)
(-5.47405e-06 -5.45923e-08 0)
(-5.44779e-06 -8.61764e-08 0)
(-5.40971e-06 -1.17363e-07 0)
(-5.36019e-06 -1.48093e-07 0)
(-5.29961e-06 -1.78311e-07 0)
(-5.22838e-06 -2.07968e-07 0)
(-5.1469e-06 -2.37014e-07 0)
(-5.0556e-06 -2.65406e-07 0)
(-4.95489e-06 -2.93104e-07 0)
(-4.84521e-06 -3.2007e-07 0)
(-4.727e-06 -3.46272e-07 0)
(-4.60068e-06 -3.71679e-07 0)
(-4.4667e-06 -3.96265e-07 0)
(-4.3255e-06 -4.20005e-07 0)
(-4.1775e-06 -4.42879e-07 0)
(-4.02315e-06 -4.6487e-07 0)
(-3.86287e-06 -4.85962e-07 0)
(-3.69708e-06 -5.06145e-07 0)
(-3.52619e-06 -5.25408e-07 0)
(-3.35063e-06 -5.43745e-07 0)
(-3.17079e-06 -5.61151e-07 0)
(-2.98706e-06 -5.77624e-07 0)
(-2.79982e-06 -5.93165e-07 0)
(-2.60947e-06 -6.07774e-07 0)
(-2.41635e-06 -6.21458e-07 0)
(-2.22082e-06 -6.3422e-07 0)
(-2.02324e-06 -6.46068e-07 0)
(-1.82392e-06 -6.57012e-07 0)
(-1.6232e-06 -6.67063e-07 0)
(-1.42139e-06 -6.76231e-07 0)
(-1.21877e-06 -6.8453e-07 0)
(-1.01565e-06 -6.91974e-07 0)
(-8.1229e-07 -6.98578e-07 0)
(-6.08961e-07 -7.04359e-07 0)
(-4.05913e-07 -7.09333e-07 0)
(-2.03387e-07 -7.13518e-07 0)
(-1.61141e-09 -7.16933e-07 0)
(1.99196e-07 -7.19595e-07 0)
(3.9883e-07 -7.21526e-07 0)
(5.97094e-07 -7.22744e-07 0)
(7.93805e-07 -7.2327e-07 0)
(9.88789e-07 -7.23124e-07 0)
(1.18188e-06 -7.22326e-07 0)
(1.37294e-06 -7.20898e-07 0)
(1.5618e-06 -7.1886e-07 0)
(1.74835e-06 -7.16233e-07 0)
(1.93246e-06 -7.13038e-07 0)
(2.11401e-06 -7.09296e-07 0)
(2.2929e-06 -7.05028e-07 0)
(2.46903e-06 -7.00253e-07 0)
(-2.16229e-07 1.21547e-06 0)
(-6.4602e-07 1.21099e-06 0)
(-1.06976e-06 1.20216e-06 0)
(-1.48604e-06 1.18914e-06 0)
(-1.89357e-06 1.17206e-06 0)
(-2.29112e-06 1.1511e-06 0)
(-2.67757e-06 1.12642e-06 0)
(-3.05186e-06 1.0982e-06 0)
(-3.41305e-06 1.06662e-06 0)
(-3.76026e-06 1.03186e-06 0)
(-4.09272e-06 9.94123e-07 0)
(-4.40972e-06 9.53594e-07 0)
(-4.71064e-06 9.10469e-07 0)
(-4.99495e-06 8.64943e-07 0)
(-5.26219e-06 8.17211e-07 0)
(-5.51198e-06 7.6747e-07 0)
(-5.74399e-06 7.15913e-07 0)
(-5.958e-06 6.62731e-07 0)
(-6.15383e-06 6.08116e-07 0)
(-6.33137e-06 5.52253e-07 0)
(-6.49058e-06 4.95327e-07 0)
(-6.63146e-06 4.37515e-07 0)
(-6.75409e-06 3.78995e-07 0)
(-6.85858e-06 3.19935e-07 0)
(-6.94511e-06 2.60502e-07 0)
(-7.0139e-06 2.00854e-07 0)
(-7.0652e-06 1.41146e-07 0)
(-7.09931e-06 8.15255e-08 0)
(-7.11658e-06 2.21351e-08 0)
(-7.11737e-06 -3.68898e-08 0)
(-7.10209e-06 -9.54204e-08 0)
(-7.07117e-06 -1.53334e-07 0)
(-7.02506e-06 -2.10515e-07 0)
(-6.96425e-06 -2.66855e-07 0)
(-6.88923e-06 -3.2225e-07 0)
(-6.80053e-06 -3.76606e-07 0)
(-6.69866e-06 -4.29834e-07 0)
(-6.58417e-06 -4.81852e-07 0)
(-6.45763e-06 -5.32584e-07 0)
(-6.31957e-06 -5.81961e-07 0)
(-6.17058e-06 -6.29921e-07 0)
(-6.01122e-06 -6.76408e-07 0)
(-5.84206e-06 -7.2137e-07 0)
(-5.66367e-06 -7.64765e-07 0)
(-5.47662e-06 -8.06554e-07 0)
(-5.28147e-06 -8.46703e-07 0)
(-5.07878e-06 -8.85186e-07 0)
(-4.8691e-06 -9.2198e-07 0)
(-4.65298e-06 -9.57068e-07 0)
(-4.43096e-06 -9.90437e-07 0)
(-4.20355e-06 -1.02208e-06 0)
(-3.97127e-06 -1.05199e-06 0)
(-3.73462e-06 -1.08018e-06 0)
(-3.4941e-06 -1.10664e-06 0)
(-3.25017e-06 -1.13138e-06 0)
(-3.00331e-06 -1.15441e-06 0)
(-2.75395e-06 -1.17576e-06 0)
(-2.50253e-06 -1.19543e-06 0)
(-2.24948e-06 -1.21345e-06 0)
(-1.99518e-06 -1.22983e-06 0)
(-1.74004e-06 -1.24461e-06 0)
(-1.48441e-06 -1.25782e-06 0)
(-1.22866e-06 -1.26947e-06 0)
(-9.73118e-07 -1.27961e-06 0)
(-7.18118e-07 -1.28826e-06 0)
(-4.63963e-07 -1.29546e-06 0)
(-2.10947e-07 -1.30124e-06 0)
(4.0654e-08 -1.30565e-06 0)
(2.90577e-07 -1.30871e-06 0)
(5.38575e-07 -1.31046e-06 0)
(7.84416e-07 -1.31095e-06 0)
(1.02788e-06 -1.3102e-06 0)
(1.26877e-06 -1.30827e-06 0)
(1.50688e-06 -1.30519e-06 0)
(1.74205e-06 -1.301e-06 0)
(1.97411e-06 -1.29573e-06 0)
(2.2029e-06 -1.28944e-06 0)
(2.42829e-06 -1.28215e-06 0)
(2.65015e-06 -1.27391e-06 0)
(2.86836e-06 -1.26475e-06 0)
(-2.97587e-07 1.95712e-06 0)
(-8.89112e-07 1.94998e-06 0)
(-1.47237e-06 1.9359e-06 0)
(-2.04547e-06 1.91513e-06 0)
(-2.60666e-06 1.88788e-06 0)
(-3.15428e-06 1.85444e-06 0)
(-3.68681e-06 1.81505e-06 0)
(-4.20282e-06 1.77e-06 0)
(-4.70103e-06 1.71957e-06 0)
(-5.18025e-06 1.66406e-06 0)
(-5.6394e-06 1.60376e-06 0)
(-6.07753e-06 1.53899e-06 0)
(-6.49379e-06 1.47004e-06 0)
(-6.88742e-06 1.39723e-06 0)
(-7.25778e-06 1.32086e-06 0)
(-7.60435e-06 1.24124e-06 0)
(-7.92666e-06 1.15869e-06 0)
(-8.22437e-06 1.0735e-06 0)
(-8.49723e-06 9.85983e-07 0)
(-8.74507e-06 8.96433e-07 0)
(-8.96779e-06 8.05143e-07 0)
(-9.1654e-06 7.12402e-07 0)
(-9.33796e-06 6.18491e-07 0)
(-9.48562e-06 5.23684e-07 0)
(-9.6086e-06 4.28248e-07 0)
(-9.70717e-06 3.32441e-07 0)
(-9.78167e-06 2.36514e-07 0)
(-9.8325e-06 1.40707e-07 0)
(-9.86012e-06 4.5252e-08 0)
(-9.86501e-06 -4.96299e-08 0)
(-9.84772e-06 -1.43727e-07 0)
(-9.80885e-06 -2.36839e-07 0)
(-9.74901e-06 -3.28774e-07 0)
(-9.66885e-06 -4.19354e-07 0)
(-9.56907e-06 -5.08409e-07 0)
(-9.45038e-06 -5.9578e-07 0)
(-9.31352e-06 -6.81322e-07 0)
(-9.15923e-06 -7.64897e-07 0)
(-8.98828e-06 -8.4638e-07 0)
(-8.80146e-06 -9.25656e-07 0)
(-8.59956e-06 -1.00262e-06 0)
(-8.38338e-06 -1.07718e-06 0)
(-8.15371e-06 -1.14925e-06 0)
(-7.91136e-06 -1.21876e-06 0)
(-7.65712e-06 -1.28564e-06 0)
(-7.3918e-06 -1.34984e-06 0)
(-7.11617e-06 -1.41131e-06 0)
(-6.83103e-06 -1.47001e-06 0)
(-6.53712e-06 -1.52593e-06 0)
(-6.23523e-06 -1.57902e-06 0)
(-5.92607e-06 -1.6293e-06 0)
(-5.61039e-06 -1.67674e-06 0)
(-5.28889e-06 -1.72135e-06 0)
(-4.96226e-06 -1.76313e-06 0)
(-4.63118e-06 -1.80211e-06 0)
(-4.29629e-06 -1.8383e-06 0)
(-3.95823e-06 -1.87173e-06 0)
(-3.6176e-06 -1.90242e-06 0)
(-3.27501e-06 -1.93042e-06 0)
(-2.93099e-06 -1.95576e-06 0)
(-2.58611e-06 -1.97849e-06 0)
(-2.24088e-06 -1.99865e-06 0)
(-1.8958e-06 -2.01629e-06 0)
(-1.55133e-06 -2.03147e-06 0)
(-1.20794e-06 -2.04424e-06 0)
(-8.6603e-07 -2.05465e-06 0)
(-5.26021e-07 -2.06278e-06 0)
(-1.88291e-07 -2.06868e-06 0)
(1.46803e-07 -2.07242e-06 0)
(4.78923e-07 -2.07405e-06 0)
(8.07754e-07 -2.07365e-06 0)
(1.133e-06 -2.07128e-06 0)
(1.45439e-06 -2.067e-06 0)
(1.77167e-06 -2.06089e-06 0)
(2.0846e-06 -2.053e-06 0)
(2.39297e-06 -2.04342e-06 0)
(2.69657e-06 -2.03219e-06 0)
(2.99524e-06 -2.0194e-06 0)
(3.28879e-06 -2.0051e-06 0)
(3.5771e-06 -1.98935e-06 0)
(-4.23293e-07 2.99765e-06 0)
(-1.26473e-06 2.98687e-06 0)
(-2.09453e-06 2.96562e-06 0)
(-2.9101e-06 2.93423e-06 0)
(-3.70898e-06 2.89308e-06 0)
(-4.4889e-06 2.84253e-06 0)
(-5.24773e-06 2.78298e-06 0)
(-5.9835e-06 2.71484e-06 0)
(-6.69438e-06 2.63853e-06 0)
(-7.37872e-06 2.55449e-06 0)
(-8.03499e-06 2.46316e-06 0)
(-8.66183e-06 2.36498e-06 0)
(-9.25801e-06 2.2604e-06 0)
(-9.82245e-06 2.14989e-06 0)
(-1.03542e-05 2.03391e-06 0)
(-1.08525e-05 1.91291e-06 0)
(-1.13166e-05 1.78735e-06 0)
(-1.17461e-05 1.6577e-06 0)
(-1.21404e-05 1.5244e-06 0)
(-1.24992e-05 1.3879e-06 0)
(-1.28225e-05 1.24866e-06 0)
(-1.31102e-05 1.1071e-06 0)
(-1.33622e-05 9.63654e-07 0)
(-1.35787e-05 8.18746e-07 0)
(-1.37601e-05 6.72784e-07 0)
(-1.39065e-05 5.26167e-07 0)
(-1.40185e-05 3.79283e-07 0)
(-1.40966e-05 2.32506e-07 0)
(-1.41414e-05 8.61994e-08 0)
(-1.41535e-05 -5.92904e-08 0)
(-1.41337e-05 -2.0363e-07 0)
(-1.40828e-05 -3.465e-07 0)
(-1.40017e-05 -4.87598e-07 0)
(-1.38912e-05 -6.26639e-07 0)
(-1.37524e-05 -7.6335e-07 0)
(-1.35863e-05 -8.97478e-07 0)
(-1.33939e-05 -1.02879e-06 0)
(-1.31763e-05 -1.15705e-06 0)
(-1.29346e-05 -1.28207e-06 0)
(-1.26699e-05 -1.40366e-06 0)
(-1.23835e-05 -1.52165e-06 0)
(-1.20764e-05 -1.63588e-06 0)
(-1.17499e-05 -1.74622e-06 0)
(-1.1405e-05 -1.85254e-06 0)
(-1.10431e-05 -1.95474e-06 0)
(-1.06652e-05 -2.05273e-06 0)
(-1.02725e-05 -2.14643e-06 0)
(-9.86628e-06 -2.23578e-06 0)
(-9.44755e-06 -2.32074e-06 0)
(-9.01748e-06 -2.40126e-06 0)
(-8.57716e-06 -2.47734e-06 0)
(-8.1277e-06 -2.54895e-06 0)
(-7.67013e-06 -2.6161e-06 0)
(-7.2055e-06 -2.67881e-06 0)
(-6.7348e-06 -2.7371e-06 0)
(-6.259e-06 -2.791e-06 0)
(-5.77905e-06 -2.84056e-06 0)
(-5.29585e-06 -2.88582e-06 0)
(-4.81027e-06 -2.92685e-06 0)
(-4.32316e-06 -2.96372e-06 0)
(-3.83531e-06 -2.99648e-06 0)
(-3.34749e-06 -3.02523e-06 0)
(-2.86042e-06 -3.05005e-06 0)
(-2.37481e-06 -3.07103e-06 0)
(-1.89132e-06 -3.08825e-06 0)
(-1.41056e-06 -3.10183e-06 0)
(-9.33114e-07 -3.11185e-06 0)
(-4.59543e-07 -3.11842e-06 0)
(9.64009e-09 -3.12164e-06 0)
(4.73953e-07 -3.12163e-06 0)
(9.32948e-07 -3.11848e-06 0)
(1.38621e-06 -3.11232e-06 0)
(1.83335e-06 -3.10324e-06 0)
(2.27401e-06 -3.09136e-06 0)
(2.70788e-06 -3.0768e-06 0)
(3.13465e-06 -3.05965e-06 0)
(3.55407e-06 -3.04002e-06 0)
(3.96588e-06 -3.01804e-06 0)
(4.36988e-06 -2.99379e-06 0)
(4.76587e-06 -2.9674e-06 0)
(-6.10254e-07 4.4895e-06 0)
(-1.82343e-06 4.47369e-06 0)
(-3.02011e-06 4.44254e-06 0)
(-4.19671e-06 4.39652e-06 0)
(-5.34985e-06 4.33614e-06 0)
(-6.47638e-06 4.26195e-06 0)
(-7.57332e-06 4.1745e-06 0)
(-8.63793e-06 4.07436e-06 0)
(-9.66764e-06 3.96213e-06 0)
(-1.06601e-05 3.83841e-06 0)
(-1.16131e-05 3.70382e-06 0)
(-1.25247e-05 3.559e-06 0)
(-1.33931e-05 3.40458e-06 0)
(-1.42167e-05 3.24121e-06 0)
(-1.49941e-05 3.06954e-06 0)
(-1.57239e-05 2.89023e-06 0)
(-1.64052e-05 2.70394e-06 0)
(-1.70371e-05 2.51131e-06 0)
(-1.76187e-05 2.31302e-06 0)
(-1.81497e-05 2.1097e-06 0)
(-1.86295e-05 1.90203e-06 0)
(-1.90579e-05 1.69062e-06 0)
(-1.94348e-05 1.47614e-06 0)
(-1.97603e-05 1.25919e-06 0)
(-2.00347e-05 1.0404e-06 0)
(-2.02583e-05 8.20366e-07 0)
(-2.04315e-05 5.99687e-07 0)
(-2.0555e-05 3.78934e-07 0)
(-2.06295e-05 1.58666e-07 0)
(-2.0656e-05 -6.05748e-08 0)
(-2.06354e-05 -2.78267e-07 0)
(-2.05687e-05 -4.9391e-07 0)
(-2.04573e-05 -7.07021e-07 0)
(-2.03022e-05 -9.17143e-07 0)
(-2.0105e-05 -1.12384e-06 0)
(-1.98671e-05 -1.3267e-06 0)
(-1.95899e-05 -1.52534e-06 0)
(-1.92751e-05 -1.7194e-06 0)
(-1.89242e-05 -1.90854e-06 0)
(-1.8539e-05 -2.09244e-06 0)
(-1.81212e-05 -2.27084e-06 0)
(-1.76724e-05 -2.44346e-06 0)
(-1.71945e-05 -2.61008e-06 0)
(-1.66892e-05 -2.77049e-06 0)
(-1.61584e-05 -2.92451e-06 0)
(-1.56038e-05 -3.07198e-06 0)
(-1.50273e-05 -3.21278e-06 0)
(-1.44305e-05 -3.3468e-06 0)
(-1.38153e-05 -3.47395e-06 0)
(-1.31834e-05 -3.59417e-06 0)
(-1.25365e-05 -3.70743e-06 0)
(-1.18762e-05 -3.81371e-06 0)
(-1.12044e-05 -3.913e-06 0)
(-1.05224e-05 -4.00532e-06 0)
(-9.83196e-06 -4.09073e-06 0)
(-9.13452e-06 -4.16927e-06 0)
(-8.43155e-06 -4.241e-06 0)
(-7.72446e-06 -4.30603e-06 0)
(-7.0146e-06 -4.36444e-06 0)
(-6.30328e-06 -4.41634e-06 0)
(-5.59173e-06 -4.46187e-06 0)
(-4.88114e-06 -4.50114e-06 0)
(-4.17262e-06 -4.53431e-06 0)
(-3.46726e-06 -4.56153e-06 0)
(-2.76604e-06 -4.58294e-06 0)
(-2.06992e-06 -4.59871e-06 0)
(-1.37979e-06 -4.60902e-06 0)
(-6.96478e-07 -4.61404e-06 0)
(-2.07497e-08 -4.61393e-06 0)
(6.46674e-07 -4.60888e-06 0)
(1.30513e-06 -4.59908e-06 0)
(1.95401e-06 -4.5847e-06 0)
(2.59276e-06 -4.56593e-06 0)
(3.22088e-06 -4.54295e-06 0)
(3.8379e-06 -4.51594e-06 0)
(4.44341e-06 -4.48509e-06 0)
(5.03705e-06 -4.45057e-06 0)
(5.6185e-06 -4.41257e-06 0)
(6.18748e-06 -4.37126e-06 0)
(6.74374e-06 -4.3268e-06 0)
(-8.81546e-07 6.64279e-06 0)
(-2.63426e-06 6.62019e-06 0)
(-4.36377e-06 6.57561e-06 0)
(-6.06526e-06 6.50974e-06 0)
(-7.73422e-06 6.42327e-06 0)
(-9.36635e-06 6.31691e-06 0)
(-1.09576e-05 6.19142e-06 0)
(-1.25043e-05 6.04757e-06 0)
(-1.40028e-05 5.88612e-06 0)
(-1.54498e-05 5.7079e-06 0)
(-1.68421e-05 5.51372e-06 0)
(-1.81771e-05 5.30443e-06 0)
(-1.94519e-05 5.08086e-06 0)
(-2.06642e-05 4.84389e-06 0)
(-2.18118e-05 4.59439e-06 0)
(-2.28927e-05 4.33325e-06 0)
(-2.39051e-05 4.06137e-06 0)
(-2.48474e-05 3.77964e-06 0)
(-2.57184e-05 3.48899e-06 0)
(-2.65169e-05 3.19033e-06 0)
(-2.72419e-05 2.88457e-06 0)
(-2.78929e-05 2.57263e-06 0)
(-2.84693e-05 2.25544e-06 0)
(-2.89709e-05 1.9339e-06 0)
(-2.93976e-05 1.60893e-06 0)
(-2.97497e-05 1.28142e-06 0)
(-3.00274e-05 9.52272e-07 0)
(-3.02314e-05 6.22359e-07 0)
(-3.03625e-05 2.92543e-07 0)
(-3.04216e-05 -3.63316e-08 0)
(-3.04099e-05 -3.6344e-07 0)
(-3.03287e-05 -6.87983e-07 0)
(-3.01797e-05 -1.00919e-06 0)
(-2.99644e-05 -1.3263e-06 0)
(-2.96848e-05 -1.63861e-06 0)
(-2.93427e-05 -1.94543e-06 0)
(-2.89405e-05 -2.24611e-06 0)
(-2.84803e-05 -2.54005e-06 0)
(-2.79645e-05 -2.82665e-06 0)
(-2.73956e-05 -3.10539e-06 0)
(-2.67761e-05 -3.37578e-06 0)
(-2.61087e-05 -3.63735e-06 0)
(-2.53961e-05 -3.88969e-06 0)
(-2.46411e-05 -4.13245e-06 0)
(-2.38464e-05 -4.36527e-06 0)
(-2.30149e-05 -4.5879e-06 0)
(-2.21494e-05 -4.80007e-06 0)
(-2.12526e-05 -5.00159e-06 0)
(-2.03275e-05 -5.1923e-06 0)
(-1.93768e-05 -5.37208e-06 0)
(-1.84033e-05 -5.54084e-06 0)
(-1.74097e-05 -5.69855e-06 0)
(-1.63986e-05 -5.84518e-06 0)
(-1.53727e-05 -5.98077e-06 0)
(-1.43345e-05 -6.10538e-06 0)
(-1.32864e-05 -6.21908e-06 0)
(-1.22309e-05 -6.322e-06 0)
(-1.11701e-05 -6.41428e-06 0)
(-1.01064e-05 -6.49608e-06 0)
(-9.04178e-06 -6.56759e-06 0)
(-7.97832e-06 -6.62903e-06 0)
(-6.91789e-06 -6.68061e-06 0)
(-5.86232e-06 -6.7226e-06 0)
(-4.81331e-06 -6.75523e-06 0)
(-3.77246e-06 -6.7788e-06 0)
(-2.74127e-06 -6.79357e-06 0)
(-1.72115e-06 -6.79984e-06 0)
(-7.13383e-07 -6.79791e-06 0)
(2.80817e-07 -6.78809e-06 0)
(1.26035e-06 -6.77069e-06 0)
(2.22422e-06 -6.74601e-06 0)
(3.1715e-06 -6.71438e-06 0)
(4.10138e-06 -6.6761e-06 0)
(5.0131e-06 -6.63149e-06 0)
(5.90603e-06 -6.58087e-06 0)
(6.77958e-06 -6.52454e-06 0)
(7.63326e-06 -6.4628e-06 0)
(8.46664e-06 -6.39596e-06 0)
(9.27938e-06 -6.32432e-06 0)
(1.00712e-05 -6.24816e-06 0)
(-1.26568e-06 9.74213e-06 0)
(-3.78261e-06 9.71074e-06 0)
(-6.2676e-06 9.64881e-06 0)
(-8.71462e-06 9.55722e-06 0)
(-1.11179e-05 9.43686e-06 0)
(-1.3472e-05 9.28864e-06 0)
(-1.57718e-05 9.11348e-06 0)
(-1.80122e-05 8.91231e-06 0)
(-2.01885e-05 8.68609e-06 0)
(-2.22962e-05 8.43581e-06 0)
(-2.43311e-05 8.16243e-06 0)
(-2.6289e-05 7.86699e-06 0)
(-2.81662e-05 7.55052e-06 0)
(-2.99589e-05 7.21406e-06 0)
(-3.16637e-05 6.85869e-06 0)
(-3.32775e-05 6.48553e-06 0)
(-3.47971e-05 6.0957e-06 0)
(-3.62198e-05 5.69035e-06 0)
(-3.75432e-05 5.27065e-06 0)
(-3.87648e-05 4.83781e-06 0)
(-3.98828e-05 4.39305e-06 0)
(-4.08952e-05 3.93762e-06 0)
(-4.18007e-05 3.47278e-06 0)
(-4.25979e-05 2.99983e-06 0)
(-4.32861e-05 2.52005e-06 0)
(-4.38645e-05 2.03476e-06 0)
(-4.43329e-05 1.54529e-06 0)
(-4.46914e-05 1.05296e-06 0)
(-4.49401e-05 5.59093e-07 0)
(-4.50799e-05 6.50163e-08 0)
(-4.51117e-05 -4.27957e-07 0)
(-4.50368e-05 -9.18528e-07 0)
(-4.48569e-05 -1.40542e-06 0)
(-4.45738e-05 -1.88737e-06 0)
(-4.419e-05 -2.36316e-06 0)
(-4.37079e-05 -2.83161e-06 0)
(-4.31304e-05 -3.29158e-06 0)
(-4.24607e-05 -3.74195e-06 0)
(-4.1702e-05 -4.1817e-06 0)
(-4.08581e-05 -4.60984e-06 0)
(-3.99327e-05 -5.02544e-06 0)
(-3.89299e-05 -5.42765e-06 0)
(-3.78539e-05 -5.81567e-06 0)
(-3.6709e-05 -6.18879e-06 0)
(-3.54996e-05 -6.54637e-06 0)
(-3.42304e-05 -6.88784e-06 0)
(-3.29059e-05 -7.2127e-06 0)
(-3.15309e-05 -7.52054e-06 0)
(-3.01099e-05 -7.81101e-06 0)
(-2.86477e-05 -8.08386e-06 0)
(-2.7149e-05 -8.33888e-06 0)
(-2.56182e-05 -8.57595e-06 0)
(-2.406e-05 -8.79503e-06 0)
(-2.24788e-05 -8.99611e-06 0)
(-2.08789e-05 -9.17928e-06 0)
(-1.92645e-05 -9.34466e-06 0)
(-1.76398e-05 -9.49246e-06 0)
(-1.60086e-05 -9.62289e-06 0)
(-1.43748e-05 -9.73627e-06 0)
(-1.27418e-05 -9.8329e-06 0)
(-1.11132e-05 -9.91318e-06 0)
(-9.49219e-06 -9.9775e-06 0)
(-7.88185e-06 -1.00263e-05 0)
(-6.28506e-06 -1.00601e-05 0)
(-4.70449e-06 -1.00792e-05 0)
(-3.14266e-06 -1.00844e-05 0)
(-1.60187e-06 -1.0076e-05 0)
(-8.4244e-08 -1.00547e-05 0)
(1.40827e-06 -1.00209e-05 0)
(2.87392e-06 -9.97529e-06 0)
(4.31112e-06 -9.91837e-06 0)
(5.71846e-06 -9.85071e-06 0)
(7.09468e-06 -9.77288e-06 0)
(8.4387e-06 -9.68545e-06 0)
(9.74959e-06 -9.58897e-06 0)
(1.10265e-05 -9.48399e-06 0)
(1.22689e-05 -9.37105e-06 0)
(1.34762e-05 -9.25067e-06 0)
(1.4648e-05 -9.12338e-06 0)
(1.5784e-05 -8.98968e-06 0)
(-1.79178e-06 1.41553e-05 0)
(-5.35593e-06 1.41136e-05 0)
(-8.87786e-06 1.40312e-05 0)
(-1.23508e-05 1.39092e-05 0)
(-1.57684e-05 1.37486e-05 0)
(-1.91243e-05 1.35505e-05 0)
(-2.24125e-05 1.33158e-05 0)
(-2.5627e-05 1.30455e-05 0)
(-2.87622e-05 1.27406e-05 0)
(-3.18123e-05 1.24022e-05 0)
(-3.47717e-05 1.20311e-05 0)
(-3.76351e-05 1.16285e-05 0)
(-4.03968e-05 1.11953e-05 0)
(-4.30517e-05 1.07326e-05 0)
(-4.55945e-05 1.02415e-05 0)
(-4.80199e-05 9.72321e-06 0)
(-5.0323e-05 9.17886e-06 0)
(-5.24987e-05 8.60972e-06 0)
(-5.45424e-05 8.0171e-06 0)
(-5.64494e-05 7.40236e-06 0)
(-5.82153e-05 6.76694e-06 0)
(-5.98359e-05 6.11235e-06 0)
(-6.13073e-05 5.44016e-06 0)
(-6.26259e-05 4.75204e-06 0)
(-6.37884e-05 4.04971e-06 0)
(-6.47918e-05 3.33495e-06 0)
(-6.56337e-05 2.60965e-06 0)
(-6.6312e-05 1.87572e-06 0)
(-6.68252e-05 1.13517e-06 0)
(-6.71722e-05 3.90041e-07 0)
(-6.73525e-05 -3.57579e-07 0)
(-6.73661e-05 -1.10556e-06 0)
(-6.72138e-05 -1.85174e-06 0)
(-6.68969e-05 -2.59396e-06 0)
(-6.64172e-05 -3.33004e-06 0)
(-6.57773e-05 -4.05783e-06 0)
(-6.49804e-05 -4.77519e-06 0)
(-6.40304e-05 -5.48003e-06 0)
(-6.29316e-05 -6.17034e-06 0)
(-6.16891e-05 -6.84414e-06 0)
(-6.03084e-05 -7.49957e-06 0)
(-5.87956e-05 -8.13487e-06 0)
(-5.71572e-05 -8.74837e-06 0)
(-5.54002e-05 -9.33857e-06 0)
(-5.3532e-05 -9.90405e-06 0)
(-5.15602e-05 -1.04436e-05 0)
(-4.94927e-05 -1.09561e-05 0)
(-4.73376e-05 -1.14406e-05 0)
(-4.5103e-05 -1.18962e-05 0)
(-4.27974e-05 -1.23225e-05 0)
(-4.04289e-05 -1.27188e-05 0)
(-3.8006e-05 -1.30849e-05 0)
(-3.55368e-05 -1.34205e-05 0)
(-3.30294e-05 -1.37256e-05 0)
(-3.04916e-05 -1.40002e-05 0)
(-2.79313e-05 -1.42446e-05 0)
(-2.53558e-05 -1.4459e-05 0)
(-2.27723e-05 -1.46439e-05 0)
(-2.01877e-05 -1.47997e-05 0)
(-1.76086e-05 -1.49272e-05 0)
(-1.50413e-05 -1.5027e-05 0)
(-1.24916e-05 -1.50998e-05 0)
(-9.965e-06 -1.51466e-05 0)
(-7.46673e-06 -1.51681e-05 0)
(-5.00154e-06 -1.51653e-05 0)
(-2.57386e-06 -1.51393e-05 0)
(-1.87719e-07 -1.5091e-05 0)
(2.15322e-06 -1.50214e-05 0)
(4.44564e-06 -1.49317e-05 0)
(6.68662e-06 -1.48228e-05 0)
(8.87356e-06 -1.4696e-05 0)
(1.10042e-05 -1.45522e-05 0)
(1.30766e-05 -1.43926e-05 0)
(1.50892e-05 -1.42181e-05 0)
(1.70406e-05 -1.40299e-05 0)
(1.89299e-05 -1.3829e-05 0)
(2.07562e-05 -1.36164e-05 0)
(2.25191e-05 -1.33931e-05 0)
(2.42183e-05 -1.316e-05 0)
(2.58537e-05 -1.29181e-05 0)
(-2.47598e-06 2.03155e-05 0)
(-7.40317e-06 2.02637e-05 0)
(-1.2278e-05 2.01614e-05 0)
(-1.70948e-05 2.00097e-05 0)
(-2.1848e-05 1.98096e-05 0)
(-2.65323e-05 1.95619e-05 0)
(-3.1142e-05 1.92676e-05 0)
(-3.56715e-05 1.89273e-05 0)
(-4.0115e-05 1.85417e-05 0)
(-4.44665e-05 1.81114e-05 0)
(-4.87197e-05 1.76372e-05 0)
(-5.28681e-05 1.71194e-05 0)
(-5.69049e-05 1.65587e-05 0)
(-6.0823e-05 1.59558e-05 0)
(-6.46151e-05 1.53111e-05 0)
(-6.82734e-05 1.46255e-05 0)
(-7.17899e-05 1.38995e-05 0)
(-7.51564e-05 1.31341e-05 0)
(-7.83644e-05 1.23301e-05 0)
(-8.14051e-05 1.14885e-05 0)
(-8.42696e-05 1.06105e-05 0)
(-8.6949e-05 9.69735e-06 0)
(-8.94341e-05 8.75052e-06 0)
(-9.1716e-05 7.77163e-06 0)
(-9.37858e-05 6.76249e-06 0)
(-9.56347e-05 5.72513e-06 0)
(-9.72543e-05 4.66178e-06 0)
(-9.86365e-05 3.57489e-06 0)
(-9.9774e-05 2.46715e-06 0)
(-0.00010066 1.34146e-06 0)
(-0.000101288 2.00974e-07 0)
(-0.000101653 -9.50953e-07 0)
(-0.000101752 -2.11074e-06 0)
(-0.00010158 -3.27462e-06 0)
(-0.000101137 -4.43863e-06 0)
(-0.000100422 -5.59868e-06 0)
(-9.94355e-05 -6.75056e-06 0)
(-9.81809e-05 -7.88999e-06 0)
(-9.6662e-05 -9.01265e-06 0)
(-9.48847e-05 -1.01142e-05 0)
(-9.28561e-05 -1.11906e-05 0)
(-9.05851e-05 -1.22376e-05 0)
(-8.80818e-05 -1.32514e-05 0)
(-8.53577e-05 -1.42284e-05 0)
(-8.24254e-05 -1.51651e-05 0)
(-7.92985e-05 -1.60587e-05 0)
(-7.59916e-05 -1.69063e-05 0)
(-7.25197e-05 -1.77056e-05 0)
(-6.88986e-05 -1.84548e-05 0)
(-6.51441e-05 -1.91521e-05 0)
(-6.12724e-05 -1.97963e-05 0)
(-5.72998e-05 -2.03864e-05 0)
(-5.32423e-05 -2.09221e-05 0)
(-4.91157e-05 -2.14028e-05 0)
(-4.49356e-05 -2.18288e-05 0)
(-4.07173e-05 -2.22002e-05 0)
(-3.64752e-05 -2.25177e-05 0)
(-3.22237e-05 -2.27821e-05 0)
(-2.7976e-05 -2.29943e-05 0)
(-2.37452e-05 -2.31556e-05 0)
(-1.95432e-05 -2.32673e-05 0)
(-1.53816e-05 -2.3331e-05 0)
(-1.1271e-05 -2.33484e-05 0)
(-7.2213e-06 -2.33212e-05 0)
(-3.24158e-06 -2.32514e-05 0)
(6.59812e-07 -2.3141e-05 0)
(4.47531e-06 -2.2992e-05 0)
(8.19816e-06 -2.28065e-05 0)
(1.18223e-05 -2.25868e-05 0)
(1.53426e-05 -2.2335e-05 0)
(1.87545e-05 -2.20533e-05 0)
(2.20542e-05 -2.1744e-05 0)
(2.52387e-05 -2.14092e-05 0)
(2.83055e-05 -2.10512e-05 0)
(3.1253e-05 -2.06721e-05 0)
(3.408e-05 -2.0274e-05 0)
(3.67861e-05 -1.98589e-05 0)
(3.9371e-05 -1.94289e-05 0)
(4.18355e-05 -1.89859e-05 0)
(4.41804e-05 -1.85315e-05 0)
(-3.29301e-06 2.86426e-05 0)
(-9.84973e-06 2.85854e-05 0)
(-1.63475e-05 2.84724e-05 0)
(-2.27856e-05 2.83043e-05 0)
(-2.9163e-05 2.8082e-05 0)
(-3.54784e-05 2.78058e-05 0)
(-4.17301e-05 2.74759e-05 0)
(-4.79156e-05 2.70925e-05 0)
(-5.40321e-05 2.66553e-05 0)
(-6.0076e-05 2.61641e-05 0)
(-6.60429e-05 2.56183e-05 0)
(-7.19277e-05 2.50174e-05 0)
(-7.77242e-05 2.43607e-05 0)
(-8.34255e-05 2.36475e-05 0)
(-8.90234e-05 2.28768e-05 0)
(-9.45089e-05 2.20479e-05 0)
(-9.98715e-05 2.11598e-05 0)
(-0.0001051 2.02116e-05 0)
(-0.000110181 1.92025e-05 0)
(-0.000115102 1.81318e-05 0)
(-0.000119847 1.69988e-05 0)
(-0.000124399 1.5803e-05 0)
(-0.000128741 1.45441e-05 0)
(-0.000132855 1.32222e-05 0)
(-0.000136719 1.18373e-05 0)
(-0.000140314 1.03903e-05 0)
(-0.000143617 8.88206e-06 0)
(-0.000146607 7.31412e-06 0)
(-0.000149259 5.68854e-06 0)
(-0.000151551 4.00799e-06 0)
(-0.00015346 2.2758e-06 0)
(-0.000154963 4.96061e-07 0)
(-0.000156039 -1.32635e-06 0)
(-0.000156667 -3.1857e-06 0)
(-0.000156829 -5.07534e-06 0)
(-0.000156509 -6.98772e-06 0)
(-0.000155694 -8.91436e-06 0)
(-0.000154376 -1.08459e-05 0)
(-0.000152548 -1.27721e-05 0)
(-0.000150212 -1.4682e-05 0)
(-0.000147372 -1.65643e-05 0)
(-0.000144039 -1.84079e-05 0)
(-0.000140228 -2.0202e-05 0)
(-0.000135959 -2.19361e-05 0)
(-0.000131257 -2.36007e-05 0)
(-0.00012615 -2.51875e-05 0)
(-0.000120669 -2.66892e-05 0)
(-0.000114847 -2.80998e-05 0)
(-0.000108717 -2.94145e-05 0)
(-0.000102315 -3.06295e-05 0)
(-9.56771e-05 -3.1742e-05 0)
(-8.88374e-05 -3.27501e-05 0)
(-8.18309e-05 -3.36526e-05 0)
(-7.46915e-05 -3.44493e-05 0)
(-6.74522e-05 -3.51403e-05 0)
(-6.01447e-05 -3.57266e-05 0)
(-5.27997e-05 -3.62095e-05 0)
(-4.54461e-05 -3.65908e-05 0)
(-3.81119e-05 -3.68727e-05 0)
(-3.08231e-05 -3.70579e-05 0)
(-2.36045e-05 -3.71492e-05 0)
(-1.64793e-05 -3.715e-05 0)
(-9.46883e-06 -3.70637e-05 0)
(-2.59313e-06 -3.6894e-05 0)
(4.12943e-06 -3.66448e-05 0)
(1.0682e-05 -3.632e-05 0)
(1.70492e-05 -3.59239e-05 0)
(2.32173e-05 -3.54608e-05 0)
(2.91741e-05 -3.49351e-05 0)
(3.49089e-05 -3.43515e-05 0)
(4.04126e-05 -3.37147e-05 0)
(4.56779e-05 -3.30296e-05 0)
(5.06989e-05 -3.23011e-05 0)
(5.54716e-05 -3.15342e-05 0)
(5.99934e-05 -3.07339e-05 0)
(6.42635e-05 -2.99052e-05 0)
(6.82828e-05 -2.90531e-05 0)
(7.20535e-05 -2.81824e-05 0)
(7.55795e-05 -2.72978e-05 0)
(7.88661e-05 -2.64037e-05 0)
(-4.13279e-06 3.93611e-05 0)
(-1.23671e-05 3.93103e-05 0)
(-2.05438e-05 3.92094e-05 0)
(-2.86723e-05 3.90592e-05 0)
(-3.67614e-05 3.88595e-05 0)
(-4.48192e-05 3.86102e-05 0)
(-5.2853e-05 3.83107e-05 0)
(-6.08693e-05 3.796e-05 0)
(-6.88738e-05 3.75568e-05 0)
(-7.68713e-05 3.70995e-05 0)
(-8.48653e-05 3.6586e-05 0)
(-9.28584e-05 3.60143e-05 0)
(-0.000100852 3.53816e-05 0)
(-0.000108845 3.4685e-05 0)
(-0.000116837 3.39214e-05 0)
(-0.000124824 3.30871e-05 0)
(-0.000132799 3.21781e-05 0)
(-0.000140757 3.11904e-05 0)
(-0.000148686 3.01194e-05 0)
(-0.000156573 2.89601e-05 0)
(-0.000164404 2.77075e-05 0)
(-0.000172157 2.63562e-05 0)
(-0.000179811 2.49005e-05 0)
(-0.000187339 2.33345e-05 0)
(-0.000194708 2.16523e-05 0)
(-0.000201884 1.98478e-05 0)
(-0.000208824 1.79151e-05 0)
(-0.000215481 1.58484e-05 0)
(-0.000221805 1.36421e-05 0)
(-0.000227735 1.12914e-05 0)
(-0.000233208 8.79199e-06 0)
(-0.000238154 6.14089e-06 0)
(-0.000242497 3.33642e-06 0)
(-0.000246157 3.78872e-07 0)
(-0.00024905 -2.72906e-06 0)
(-0.000251089 -5.98157e-06 0)
(-0.000252187 -9.36898e-06 0)
(-0.000252259 -1.28768e-05 0)
(-0.000251226 -1.64846e-05 0)
(-0.000249023 -2.01625e-05 0)
(-0.000245632 -2.38111e-05 0)
(-0.000241058 -2.74521e-05 0)
(-0.000235308 -3.10285e-05 0)
(-0.000228428 -3.44806e-05 0)
(-0.000220497 -3.77722e-05 0)
(-0.000211605 -4.08788e-05 0)
(-0.000201852 -4.37836e-05 0)
(-0.000191335 -4.64752e-05 0)
(-0.000180155 -4.89468e-05 0)
(-0.000168406 -5.11947e-05 0)
(-0.00015618 -5.32181e-05 0)
(-0.000143563 -5.50179e-05 0)
(-0.000130634 -5.65968e-05 0)
(-0.000117469 -5.79584e-05 0)
(-0.000104138 -5.91069e-05 0)
(-9.07059e-05 -6.00474e-05 0)
(-7.72327e-05 -6.07851e-05 0)
(-6.3775e-05 -6.1325e-05 0)
(-5.03858e-05 -6.16719e-05 0)
(-3.71186e-05 -6.1824e-05 0)
(-2.4025e-05 -6.1791e-05 0)
(-1.11481e-05 -6.15902e-05 0)
(1.47632e-06 -6.12282e-05 0)
(1.38134e-05 -6.07082e-05 0)
(2.58284e-05 -6.00344e-05 0)
(3.74868e-05 -5.92119e-05 0)
(4.87551e-05 -5.82459e-05 0)
(5.96006e-05 -5.71425e-05 0)
(6.99918e-05 -5.59082e-05 0)
(7.98988e-05 -5.45502e-05 0)
(8.92934e-05 -5.30766e-05 0)
(9.81497e-05 -5.14962e-05 0)
(0.000106445 -4.98189e-05 0)
(0.000114158 -4.80558e-05 0)
(0.000121274 -4.62191e-05 0)
(0.000127782 -4.43227e-05 0)
(0.000133676 -4.23819e-05 0)
(0.000138958 -4.04139e-05 0)
(0.000143637 -3.8438e-05 0)
(0.000147734 -3.64772e-05 0)
(-4.76787e-06 5.22085e-05 0)
(-1.42737e-05 5.21818e-05 0)
(-2.37313e-05 5.21287e-05 0)
(-3.31634e-05 5.20493e-05 0)
(-4.25918e-05 5.19432e-05 0)
(-5.2038e-05 5.18098e-05 0)
(-6.15227e-05 5.16481e-05 0)
(-7.10662e-05 5.14569e-05 0)
(-8.06888e-05 5.12344e-05 0)
(-9.04104e-05 5.09788e-05 0)
(-0.000100251 5.06876e-05 0)
(-0.00011023 5.03581e-05 0)
(-0.000120367 4.9987e-05 0)
(-0.000130682 4.95707e-05 0)
(-0.000141194 4.91047e-05 0)
(-0.000151923 4.85842e-05 0)
(-0.000162888 4.80036e-05 0)
(-0.000174106 4.73565e-05 0)
(-0.000185595 4.66355e-05 0)
(-0.000197373 4.58323e-05 0)
(-0.000209452 4.49374e-05 0)
(-0.000221846 4.39399e-05 0)
(-0.000234564 4.28277e-05 0)
(-0.00024761 4.15865e-05 0)
(-0.000260985 4.02003e-05 0)
(-0.000274681 3.86507e-05 0)
(-0.000288681 3.69169e-05 0)
(-0.000302958 3.49748e-05 0)
(-0.000317471 3.27972e-05 0)
(-0.00033216 3.03525e-05 0)
(-0.000346943 2.7605e-05 0)
(-0.000361711 2.45136e-05 0)
(-0.000376323 2.1031e-05 0)
(-0.000390595 1.71035e-05 0)
(-0.000404292 1.2669e-05 0)
(-0.00041712 7.65646e-06 0)
(-0.000428707 1.98456e-06 0)
(-0.000438595 -4.44021e-06 0)
(-0.000446214 -1.17256e-05 0)
(-0.000450334 -2.07857e-05 0)
(-0.000449729 -2.80811e-05 0)
(-0.000444212 -3.64985e-05 0)
(-0.000434322 -4.45616e-05 0)