/*--------------------------------*- C++ -*----------------------------------*\
  =========                 |
  \\      /  F ield         | OpenFOAM: The Open Source CFD Toolbox
   \\    /   O peration     | Website:  https://openfoam.org
    \\  /    A nd           | Version:  8
     \\/     M anipulation  |
\*---------------------------------------------------------------------------*/
FoamFile
{
    version     2.0;
    format      ascii;
    class       volVectorField;
    location    "5000";
    object      Ub;
}
// * * * * * * * * * * * * * * * * * * * * * * * * * * * * * * * * * * * * * //

dimensions      [0 1 -1 0 0 0 0];

internalField   nonuniform List<vector> 
12800
(
(-2.57868e-18 -4.93016e-13 0)
(-7.70401e-18 -4.93016e-13 0)
(-1.27565e-17 -4.93016e-13 0)
(-1.77191e-17 -4.93016e-13 0)
(-2.25759e-17 -4.93016e-13 0)
(-2.73121e-17 -4.93016e-13 0)
(-3.19139e-17 -4.93016e-13 0)
(-3.63685e-17 -4.93016e-13 0)
(-4.06645e-17 -4.93016e-13 0)
(-4.47912e-17 -4.93017e-13 0)
(-4.87393e-17 -4.93017e-13 0)
(-5.25004e-17 -4.93017e-13 0)
(-5.60669e-17 -4.93017e-13 0)
(-5.94326e-17 -4.93017e-13 0)
(-6.25919e-17 -4.93017e-13 0)
(-6.55402e-17 -4.93017e-13 0)
(-6.82741e-17 -4.93018e-13 0)
(-7.07906e-17 -4.93018e-13 0)
(-7.30878e-17 -4.93018e-13 0)
(-7.51646e-17 -4.93018e-13 0)
(-7.70205e-17 -4.93018e-13 0)
(-7.86557e-17 -4.93018e-13 0)
(-8.00713e-17 -4.93019e-13 0)
(-8.12687e-17 -4.93019e-13 0)
(-8.22502e-17 -4.93019e-13 0)
(-8.30185e-17 -4.93019e-13 0)
(-8.35766e-17 -4.93019e-13 0)
(-8.39284e-17 -4.93019e-13 0)
(-8.4078e-17 -4.9302e-13 0)
(-8.40297e-17 -4.9302e-13 0)
(-8.37886e-17 -4.9302e-13 0)
(-8.33597e-17 -4.9302e-13 0)
(-8.27485e-17 -4.9302e-13 0)
(-8.19608e-17 -4.93021e-13 0)
(-8.10024e-17 -4.93021e-13 0)
(-7.98796e-17 -4.93021e-13 0)
(-7.85985e-17 -4.93021e-13 0)
(-7.71656e-17 -4.93021e-13 0)
(-7.55875e-17 -4.93021e-13 0)
(-7.38707e-17 -4.93021e-13 0)
(-7.20218e-17 -4.93022e-13 0)
(-7.00477e-17 -4.93022e-13 0)
(-6.79548e-17 -4.93022e-13 0)
(-6.575e-17 -4.93022e-13 0)
(-6.34399e-17 -4.93022e-13 0)
(-6.10311e-17 -4.93022e-13 0)
(-5.85301e-17 -4.93022e-13 0)
(-5.59433e-17 -4.93023e-13 0)
(-5.32773e-17 -4.93023e-13 0)
(-5.05382e-17 -4.93023e-13 0)
(-4.77322e-17 -4.93023e-13 0)
(-4.48653e-17 -4.93023e-13 0)
(-4.19434e-17 -4.93023e-13 0)
(-3.89723e-17 -4.93023e-13 0)
(-3.59575e-17 -4.93023e-13 0)
(-3.29045e-17 -4.93023e-13 0)
(-2.98186e-17 -4.93023e-13 0)
(-2.67049e-17 -4.93023e-13 0)
(-2.35684e-17 -4.93023e-13 0)
(-2.04137e-17 -4.93024e-13 0)
(-1.72456e-17 -4.93024e-13 0)
(-1.40684e-17 -4.93024e-13 0)
(-1.08863e-17 -4.93024e-13 0)
(-7.70359e-18 -4.93024e-13 0)
(-4.524e-18 -4.93024e-13 0)
(-1.35129e-18 -4.93024e-13 0)
(1.811e-18 -4.93024e-13 0)
(4.95947e-18 -4.93024e-13 0)
(8.09094e-18 -4.93024e-13 0)
(1.12024e-17 -4.93024e-13 0)
(1.42908e-17 -4.93024e-13 0)
(1.73537e-17 -4.93024e-13 0)
(2.03883e-17 -4.93024e-13 0)
(2.33924e-17 -4.93024e-13 0)
(2.63636e-17 -4.93024e-13 0)
(2.92999e-17 -4.93024e-13 0)
(3.21993e-17 -4.93024e-13 0)
(3.506e-17 -4.93024e-13 0)
(3.78802e-17 -4.93024e-13 0)
(4.06586e-17 -4.93024e-13 0)
(-2.97922e-18 -4.9295e-13 0)
(-8.90074e-18 -4.9295e-13 0)
(-1.47384e-17 -4.9295e-13 0)
(-2.04726e-17 -4.9295e-13 0)
(-2.60852e-17 -4.9295e-13 0)
(-3.15591e-17 -4.9295e-13 0)
(-3.68786e-17 -4.9295e-13 0)
(-4.2029e-17 -4.92951e-13 0)
(-4.69971e-17 -4.92951e-13 0)
(-5.17709e-17 -4.92951e-13 0)
(-5.63394e-17 -4.92952e-13 0)
(-6.0693e-17 -4.92952e-13 0)
(-6.48231e-17 -4.92953e-13 0)
(-6.87224e-17 -4.92953e-13 0)
(-7.23844e-17 -4.92953e-13 0)
(-7.58041e-17 -4.92954e-13 0)
(-7.89771e-17 -4.92954e-13 0)
(-8.19003e-17 -4.92955e-13 0)
(-8.45712e-17 -4.92956e-13 0)
(-8.69886e-17 -4.92956e-13 0)
(-8.91519e-17 -4.92957e-13 0)
(-9.10614e-17 -4.92957e-13 0)
(-9.27181e-17 -4.92958e-13 0)
(-9.41238e-17 -4.92958e-13 0)
(-9.5281e-17 -4.92959e-13 0)
(-9.61926e-17 -4.92959e-13 0)
(-9.68625e-17 -4.9296e-13 0)
(-9.72948e-17 -4.92961e-13 0)
(-9.74942e-17 -4.92961e-13 0)
(-9.7466e-17 -4.92962e-13 0)
(-9.72156e-17 -4.92962e-13 0)
(-9.67492e-17 -4.92963e-13 0)
(-9.60729e-17 -4.92963e-13 0)
(-9.51935e-17 -4.92964e-13 0)
(-9.41177e-17 -4.92965e-13 0)
(-9.28527e-17 -4.92965e-13 0)
(-9.14057e-17 -4.92966e-13 0)
(-8.97841e-17 -4.92966e-13 0)
(-8.79956e-17 -4.92967e-13 0)
(-8.60478e-17 -4.92967e-13 0)
(-8.39484e-17 -4.92968e-13 0)
(-8.17051e-17 -4.92968e-13 0)
(-7.93257e-17 -4.92968e-13 0)
(-7.68181e-17 -4.92969e-13 0)
(-7.41898e-17 -4.92969e-13 0)
(-7.14486e-17 -4.9297e-13 0)
(-6.86021e-17 -4.9297e-13 0)
(-6.56577e-17 -4.9297e-13 0)
(-6.26229e-17 -4.92971e-13 0)
(-5.9505e-17 -4.92971e-13 0)
(-5.63111e-17 -4.92971e-13 0)
(-5.30482e-17 -4.92972e-13 0)
(-4.97231e-17 -4.92972e-13 0)
(-4.63424e-17 -4.92972e-13 0)
(-4.29128e-17 -4.92972e-13 0)
(-3.94404e-17 -4.92973e-13 0)
(-3.59314e-17 -4.92973e-13 0)
(-3.23917e-17 -4.92973e-13 0)
(-2.8827e-17 -4.92973e-13 0)
(-2.52429e-17 -4.92973e-13 0)
(-2.16446e-17 -4.92974e-13 0)
(-1.80373e-17 -4.92974e-13 0)
(-1.44257e-17 -4.92974e-13 0)
(-1.08148e-17 -4.92974e-13 0)
(-7.20876e-18 -4.92974e-13 0)
(-3.61202e-18 -4.92974e-13 0)
(-2.86176e-20 -4.92974e-13 0)
(3.5376e-18 -4.92974e-13 0)
(7.08296e-18 -4.92974e-13 0)
(1.0604e-17 -4.92974e-13 0)
(1.40975e-17 -4.92974e-13 0)
(1.75603e-17 -4.92974e-13 0)
(2.09895e-17 -4.92974e-13 0)
(2.43825e-17 -4.92974e-13 0)
(2.77366e-17 -4.92974e-13 0)
(3.10496e-17 -4.92974e-13 0)
(3.43192e-17 -4.92974e-13 0)
(3.75434e-17 -4.92974e-13 0)
(4.07204e-17 -4.92974e-13 0)
(4.38484e-17 -4.92974e-13 0)
(-3.84009e-18 -4.9294e-13 0)
(-1.14729e-17 -4.9294e-13 0)
(-1.89982e-17 -4.9294e-13 0)
(-2.63911e-17 -4.9294e-13 0)
(-3.36286e-17 -4.92941e-13 0)
(-4.06888e-17 -4.92941e-13 0)
(-4.75518e-17 -4.92941e-13 0)
(-5.41991e-17 -4.92942e-13 0)
(-6.06135e-17 -4.92942e-13 0)
(-6.67798e-17 -4.92943e-13 0)
(-7.2684e-17 -4.92944e-13 0)
(-7.83137e-17 -4.92944e-13 0)
(-8.36579e-17 -4.92945e-13 0)
(-8.87071e-17 -4.92946e-13 0)
(-9.34531e-17 -4.92947e-13 0)
(-9.78891e-17 -4.92948e-13 0)
(-1.0201e-16 -4.92949e-13 0)
(-1.0581e-16 -4.9295e-13 0)
(-1.09288e-16 -4.92951e-13 0)
(-1.12441e-16 -4.92952e-13 0)
(-1.15268e-16 -4.92953e-13 0)
(-1.1777e-16 -4.92954e-13 0)
(-1.19948e-16 -4.92955e-13 0)
(-1.21804e-16 -4.92956e-13 0)
(-1.23341e-16 -4.92957e-13 0)
(-1.24562e-16 -4.92958e-13 0)
(-1.25473e-16 -4.92959e-13 0)
(-1.26079e-16 -4.9296e-13 0)
(-1.26386e-16 -4.92961e-13 0)
(-1.264e-16 -4.92962e-13 0)
(-1.26129e-16 -4.92963e-13 0)
(-1.25579e-16 -4.92964e-13 0)
(-1.24761e-16 -4.92965e-13 0)
(-1.23681e-16 -4.92966e-13 0)
(-1.22348e-16 -4.92967e-13 0)
(-1.20773e-16 -4.92968e-13 0)
(-1.18964e-16 -4.92969e-13 0)
(-1.16931e-16 -4.9297e-13 0)
(-1.14683e-16 -4.92971e-13 0)
(-1.12232e-16 -4.92972e-13 0)
(-1.09586e-16 -4.92973e-13 0)
(-1.06755e-16 -4.92973e-13 0)
(-1.03751e-16 -4.92974e-13 0)
(-1.00583e-16 -4.92975e-13 0)
(-9.72612e-17 -4.92976e-13 0)
(-9.37955e-17 -4.92976e-13 0)
(-9.01959e-17 -4.92977e-13 0)
(-8.64722e-17 -4.92978e-13 0)
(-8.2634e-17 -4.92978e-13 0)
(-7.86909e-17 -4.92979e-13 0)
(-7.46523e-17 -4.9298e-13 0)
(-7.05271e-17 -4.9298e-13 0)
(-6.63245e-17 -4.92981e-13 0)
(-6.20529e-17 -4.92981e-13 0)
(-5.77209e-17 -4.92981e-13 0)
(-5.33368e-17 -4.92982e-13 0)
(-4.89084e-17 -4.92982e-13 0)
(-4.44434e-17 -4.92983e-13 0)
(-3.99493e-17 -4.92983e-13 0)
(-3.54332e-17 -4.92983e-13 0)
(-3.09019e-17 -4.92983e-13 0)
(-2.63621e-17 -4.92984e-13 0)
(-2.18201e-17 -4.92984e-13 0)
(-1.7282e-17 -4.92984e-13 0)
(-1.27533e-17 -4.92984e-13 0)
(-8.23968e-18 -4.92984e-13 0)
(-3.74628e-18 -4.92984e-13 0)
(7.21989e-19 -4.92985e-13 0)
(5.16046e-18 -4.92985e-13 0)
(9.56475e-18 -4.92985e-13 0)
(1.39307e-17 -4.92985e-13 0)
(1.82545e-17 -4.92985e-13 0)
(2.25325e-17 -4.92985e-13 0)
(2.67613e-17 -4.92985e-13 0)
(3.09377e-17 -4.92984e-13 0)
(3.50589e-17 -4.92984e-13 0)
(3.91221e-17 -4.92984e-13 0)
(4.31249e-17 -4.92984e-13 0)
(4.70649e-17 -4.92984e-13 0)
(5.09402e-17 -4.92984e-13 0)
(-5.28496e-18 -4.92927e-13 0)
(-1.57901e-17 -4.92927e-13 0)
(-2.61483e-17 -4.92927e-13 0)
(-3.63262e-17 -4.92927e-13 0)
(-4.62925e-17 -4.92928e-13 0)
(-5.6018e-17 -4.92928e-13 0)
(-6.54753e-17 -4.92929e-13 0)
(-7.46394e-17 -4.9293e-13 0)
(-8.34873e-17 -4.92931e-13 0)
(-9.19979e-17 -4.92932e-13 0)
(-1.00152e-16 -4.92933e-13 0)
(-1.07933e-16 -4.92934e-13 0)
(-1.15325e-16 -4.92935e-13 0)
(-1.22316e-16 -4.92937e-13 0)
(-1.28894e-16 -4.92938e-13 0)
(-1.35048e-16 -4.92939e-13 0)
(-1.40772e-16 -4.92941e-13 0)
(-1.4606e-16 -4.92942e-13 0)
(-1.50905e-16 -4.92944e-13 0)
(-1.55307e-16 -4.92945e-13 0)
(-1.59262e-16 -4.92947e-13 0)
(-1.62772e-16 -4.92949e-13 0)
(-1.65836e-16 -4.9295e-13 0)
(-1.68459e-16 -4.92952e-13 0)
(-1.70643e-16 -4.92954e-13 0)
(-1.72393e-16 -4.92955e-13 0)
(-1.73716e-16 -4.92957e-13 0)
(-1.74619e-16 -4.92959e-13 0)
(-1.75109e-16 -4.92961e-13 0)
(-1.75196e-16 -4.92962e-13 0)
(-1.74889e-16 -4.92964e-13 0)
(-1.74199e-16 -4.92966e-13 0)
(-1.73136e-16 -4.92967e-13 0)
(-1.71713e-16 -4.92969e-13 0)
(-1.69941e-16 -4.9297e-13 0)
(-1.67833e-16 -4.92972e-13 0)
(-1.65402e-16 -4.92973e-13 0)
(-1.62662e-16 -4.92975e-13 0)
(-1.59626e-16 -4.92976e-13 0)
(-1.56308e-16 -4.92978e-13 0)
(-1.52723e-16 -4.92979e-13 0)
(-1.48883e-16 -4.9298e-13 0)
(-1.44805e-16 -4.92982e-13 0)
(-1.40501e-16 -4.92983e-13 0)
(-1.35986e-16 -4.92984e-13 0)
(-1.31274e-16 -4.92985e-13 0)
(-1.26379e-16 -4.92986e-13 0)
(-1.21315e-16 -4.92987e-13 0)
(-1.16095e-16 -4.92988e-13 0)
(-1.10734e-16 -4.92989e-13 0)
(-1.05243e-16 -4.9299e-13 0)
(-9.96369e-17 -4.92991e-13 0)
(-9.39273e-17 -4.92992e-13 0)
(-8.81266e-17 -4.92993e-13 0)
(-8.22467e-17 -4.92993e-13 0)
(-7.62993e-17 -4.92994e-13 0)
(-7.02956e-17 -4.92995e-13 0)
(-6.42463e-17 -4.92995e-13 0)
(-5.8162e-17 -4.92996e-13 0)
(-5.20526e-17 -4.92996e-13 0)
(-4.59277e-17 -4.92996e-13 0)
(-3.97967e-17 -4.92997e-13 0)
(-3.36682e-17 -4.92997e-13 0)
(-2.75507e-17 -4.92997e-13 0)
(-2.14522e-17 -4.92998e-13 0)
(-1.53801e-17 -4.92998e-13 0)
(-9.3418e-18 -4.92998e-13 0)
(-3.34393e-18 -4.92998e-13 0)
(2.60712e-18 -4.92998e-13 0)
(8.50536e-18 -4.92998e-13 0)
(1.43452e-17 -4.92998e-13 0)
(2.01214e-17 -4.92998e-13 0)
(2.5829e-17 -4.92998e-13 0)
(3.14637e-17 -4.92998e-13 0)
(3.70211e-17 -4.92998e-13 0)
(4.24975e-17 -4.92998e-13 0)
(4.78894e-17 -4.92997e-13 0)
(5.31934e-17 -4.92997e-13 0)
(5.84069e-17 -4.92997e-13 0)
(6.3527e-17 -4.92997e-13 0)
(-7.51741e-18 -4.92908e-13 0)
(-2.24608e-17 -4.92908e-13 0)
(-3.71975e-17 -4.92909e-13 0)
(-5.16814e-17 -4.92909e-13 0)
(-6.58691e-17 -4.9291e-13 0)
(-7.972e-17 -4.92911e-13 0)
(-9.31963e-17 -4.92912e-13 0)
(-1.06263e-16 -4.92913e-13 0)
(-1.18888e-16 -4.92914e-13 0)
(-1.31041e-16 -4.92916e-13 0)
(-1.42696e-16 -4.92918e-13 0)
(-1.53828e-16 -4.92919e-13 0)
(-1.64416e-16 -4.92921e-13 0)
(-1.7444e-16 -4.92923e-13 0)
(-1.83884e-16 -4.92925e-13 0)
(-1.92733e-16 -4.92927e-13 0)
(-2.00976e-16 -4.9293e-13 0)
(-2.08602e-16 -4.92932e-13 0)
(-2.15605e-16 -4.92934e-13 0)
(-2.21979e-16 -4.92937e-13 0)
(-2.2772e-16 -4.92939e-13 0)
(-2.32828e-16 -4.92942e-13 0)
(-2.37304e-16 -4.92944e-13 0)
(-2.4115e-16 -4.92947e-13 0)
(-2.4437e-16 -4.92949e-13 0)
(-2.46971e-16 -4.92952e-13 0)
(-2.4896e-16 -4.92955e-13 0)
(-2.50347e-16 -4.92957e-13 0)
(-2.51142e-16 -4.9296e-13 0)
(-2.51357e-16 -4.92962e-13 0)
(-2.51005e-16 -4.92965e-13 0)
(-2.50101e-16 -4.92968e-13 0)
(-2.4866e-16 -4.9297e-13 0)
(-2.46699e-16 -4.92972e-13 0)
(-2.44234e-16 -4.92975e-13 0)
(-2.41284e-16 -4.92977e-13 0)
(-2.37867e-16 -4.9298e-13 0)
(-2.34002e-16 -4.92982e-13 0)
(-2.2971e-16 -4.92984e-13 0)
(-2.2501e-16 -4.92986e-13 0)
(-2.19923e-16 -4.92988e-13 0)
(-2.14469e-16 -4.9299e-13 0)
(-2.0867e-16 -4.92992e-13 0)
(-2.02546e-16 -4.92994e-13 0)
(-1.96118e-16 -4.92996e-13 0)
(-1.89407e-16 -4.92998e-13 0)
(-1.82434e-16 -4.92999e-13 0)
(-1.75219e-16 -4.93001e-13 0)
(-1.67782e-16 -4.93003e-13 0)
(-1.60145e-16 -4.93004e-13 0)
(-1.52325e-16 -4.93005e-13 0)
(-1.44343e-16 -4.93007e-13 0)
(-1.36217e-16 -4.93008e-13 0)
(-1.27965e-16 -4.93009e-13 0)
(-1.19606e-16 -4.9301e-13 0)
(-1.11156e-16 -4.93011e-13 0)
(-1.02632e-16 -4.93012e-13 0)
(-9.40509e-17 -4.93013e-13 0)
(-8.54274e-17 -4.93013e-13 0)
(-7.67765e-17 -4.93014e-13 0)
(-6.81126e-17 -4.93015e-13 0)
(-5.94492e-17 -4.93015e-13 0)
(-5.07993e-17 -4.93016e-13 0)
(-4.21752e-17 -4.93016e-13 0)
(-3.35886e-17 -4.93016e-13 0)
(-2.50506e-17 -4.93016e-13 0)
(-1.65715e-17 -4.93017e-13 0)
(-8.16119e-18 -4.93017e-13 0)
(1.71202e-19 -4.93017e-13 0)
(8.41711e-18 -4.93017e-13 0)
(1.65686e-17 -4.93017e-13 0)
(2.46181e-17 -4.93017e-13 0)
(3.2559e-17 -4.93016e-13 0)
(4.0385e-17 -4.93016e-13 0)
(4.80902e-17 -4.93016e-13 0)
(5.56694e-17 -4.93016e-13 0)
(6.31179e-17 -4.93015e-13 0)
(7.04315e-17 -4.93015e-13 0)
(7.76062e-17 -4.93015e-13 0)
(8.46388e-17 -4.93014e-13 0)
(-1.08377e-17 -4.92882e-13 0)
(-3.2383e-17 -4.92882e-13 0)
(-5.36353e-17 -4.92882e-13 0)
(-7.45309e-17 -4.92883e-13 0)
(-9.501e-17 -4.92884e-13 0)
(-1.15016e-16 -4.92886e-13 0)
(-1.34497e-16 -4.92887e-13 0)
(-1.53404e-16 -4.92889e-13 0)
(-1.71691e-16 -4.92891e-13 0)
(-1.89316e-16 -4.92893e-13 0)
(-2.06241e-16 -4.92896e-13 0)
(-2.22431e-16 -4.92898e-13 0)
(-2.37853e-16 -4.92901e-13 0)
(-2.5248e-16 -4.92904e-13 0)
(-2.66285e-16 -4.92907e-13 0)
(-2.79247e-16 -4.9291e-13 0)
(-2.91346e-16 -4.92913e-13 0)
(-3.02567e-16 -4.92917e-13 0)
(-3.12898e-16 -4.9292e-13 0)
(-3.22326e-16 -4.92924e-13 0)
(-3.30847e-16 -4.92928e-13 0)
(-3.38455e-16 -4.92931e-13 0)
(-3.45149e-16 -4.92935e-13 0)
(-3.50931e-16 -4.92939e-13 0)
(-3.55804e-16 -4.92943e-13 0)
(-3.59774e-16 -4.92947e-13 0)
(-3.6285e-16 -4.92951e-13 0)
(-3.65043e-16 -4.92955e-13 0)
(-3.66367e-16 -4.92959e-13 0)
(-3.66837e-16 -4.92962e-13 0)
(-3.66471e-16 -4.92966e-13 0)
(-3.65287e-16 -4.9297e-13 0)
(-3.63308e-16 -4.92974e-13 0)
(-3.60555e-16 -4.92978e-13 0)
(-3.57052e-16 -4.92981e-13 0)
(-3.52827e-16 -4.92985e-13 0)
(-3.47904e-16 -4.92988e-13 0)
(-3.42313e-16 -4.92992e-13 0)
(-3.36082e-16 -4.92995e-13 0)
(-3.29241e-16 -4.92999e-13 0)
(-3.2182e-16 -4.93002e-13 0)
(-3.1385e-16 -4.93005e-13 0)
(-3.05363e-16 -4.93008e-13 0)
(-2.9639e-16 -4.93011e-13 0)
(-2.86963e-16 -4.93013e-13 0)
(-2.77114e-16 -4.93016e-13 0)
(-2.66874e-16 -4.93018e-13 0)
(-2.56276e-16 -4.93021e-13 0)
(-2.4535e-16 -4.93023e-13 0)
(-2.34128e-16 -4.93025e-13 0)
(-2.22639e-16 -4.93027e-13 0)
(-2.10914e-16 -4.93029e-13 0)
(-1.98982e-16 -4.93031e-13 0)
(-1.86871e-16 -4.93032e-13 0)
(-1.74609e-16 -4.93034e-13 0)
(-1.62223e-16 -4.93035e-13 0)
(-1.49739e-16 -4.93037e-13 0)
(-1.37181e-16 -4.93038e-13 0)
(-1.24575e-16 -4.93039e-13 0)
(-1.11942e-16 -4.9304e-13 0)
(-9.93055e-17 -4.93041e-13 0)
(-8.66858e-17 -4.93041e-13 0)
(-7.41031e-17 -4.93042e-13 0)
(-6.15762e-17 -4.93042e-13 0)
(-4.91231e-17 -4.93043e-13 0)
(-3.67605e-17 -4.93043e-13 0)
(-2.45042e-17 -4.93043e-13 0)
(-1.2369e-17 -4.93043e-13 0)
(-3.68502e-19 -4.93043e-13 0)
(1.14845e-17 -4.93043e-13 0)
(2.31783e-17 -4.93043e-13 0)
(3.4702e-17 -4.93043e-13 0)
(4.60458e-17 -4.93042e-13 0)
(5.72007e-17 -4.93042e-13 0)
(6.81586e-17 -4.93042e-13 0)
(7.89121e-17 -4.93041e-13 0)
(8.94548e-17 -4.9304e-13 0)
(9.9781e-17 -4.9304e-13 0)
(1.09886e-16 -4.93039e-13 0)
(1.19764e-16 -4.93038e-13 0)
(-1.56557e-17 -4.92843e-13 0)
(-4.67828e-17 -4.92844e-13 0)
(-7.74977e-17 -4.92845e-13 0)
(-1.07715e-16 -4.92846e-13 0)
(-1.37355e-16 -4.92847e-13 0)
(-1.6634e-16 -4.92849e-13 0)
(-1.94601e-16 -4.92851e-13 0)
(-2.22068e-16 -4.92854e-13 0)
(-2.4868e-16 -4.92857e-13 0)
(-2.74378e-16 -4.9286e-13 0)
(-2.99106e-16 -4.92863e-13 0)
(-3.22813e-16 -4.92867e-13 0)
(-3.45454e-16 -4.92871e-13 0)
(-3.66984e-16 -4.92875e-13 0)
(-3.87364e-16 -4.9288e-13 0)
(-4.0656e-16 -4.92884e-13 0)
(-4.24539e-16 -4.92889e-13 0)
(-4.41274e-16 -4.92894e-13 0)
(-4.56742e-16 -4.92899e-13 0)
(-4.70922e-16 -4.92905e-13 0)
(-4.83799e-16 -4.9291e-13 0)
(-4.9536e-16 -4.92916e-13 0)
(-5.05596e-16 -4.92921e-13 0)
(-5.14504e-16 -4.92927e-13 0)
(-5.22083e-16 -4.92933e-13 0)
(-5.28335e-16 -4.92939e-13 0)
(-5.33267e-16 -4.92944e-13 0)
(-5.3689e-16 -4.9295e-13 0)
(-5.39218e-16 -4.92956e-13 0)
(-5.40268e-16 -4.92962e-13 0)
(-5.4006e-16 -4.92968e-13 0)
(-5.38619e-16 -4.92974e-13 0)
(-5.35972e-16 -4.92979e-13 0)
(-5.32149e-16 -4.92985e-13 0)
(-5.27182e-16 -4.9299e-13 0)
(-5.21108e-16 -4.92996e-13 0)
(-5.13965e-16 -4.93001e-13 0)
(-5.05792e-16 -4.93006e-13 0)
(-4.96631e-16 -4.93012e-13 0)
(-4.86528e-16 -4.93017e-13 0)
(-4.75526e-16 -4.93021e-13 0)
(-4.63674e-16 -4.93026e-13 0)
(-4.51019e-16 -4.9303e-13 0)
(-4.3761e-16 -4.93035e-13 0)
(-4.23497e-16 -4.93039e-13 0)
(-4.0873e-16 -4.93043e-13 0)
(-3.93358e-16 -4.93047e-13 0)
(-3.77433e-16 -4.9305e-13 0)
(-3.61004e-16 -4.93054e-13 0)
(-3.4412e-16 -4.93057e-13 0)
(-3.26831e-16 -4.9306e-13 0)
(-3.09185e-16 -4.93063e-13 0)
(-2.91229e-16 -4.93065e-13 0)
(-2.7301e-16 -4.93068e-13 0)
(-2.54571e-16 -4.9307e-13 0)
(-2.35958e-16 -4.93072e-13 0)
(-2.17212e-16 -4.93074e-13 0)
(-1.98374e-16 -4.93075e-13 0)
(-1.79483e-16 -4.93077e-13 0)
(-1.60576e-16 -4.93078e-13 0)
(-1.4169e-16 -4.93079e-13 0)
(-1.22857e-16 -4.9308e-13 0)
(-1.04111e-16 -4.93081e-13 0)
(-8.54812e-17 -4.93081e-13 0)
(-6.69964e-17 -4.93082e-13 0)
(-4.86832e-17 -4.93082e-13 0)
(-3.05664e-17 -4.93082e-13 0)
(-1.26692e-17 -4.93082e-13 0)
(4.98713e-18 -4.93082e-13 0)
(2.23831e-17 -4.93082e-13 0)
(3.95007e-17 -4.93081e-13 0)
(5.63239e-17 -4.93081e-13 0)
(7.28378e-17 -4.9308e-13 0)
(8.90295e-17 -4.93079e-13 0)
(1.04887e-16 -4.93078e-13 0)
(1.20401e-16 -4.93077e-13 0)
(1.35562e-16 -4.93076e-13 0)
(1.50362e-16 -4.93075e-13 0)
(1.64796e-16 -4.93074e-13 0)
(1.78858e-16 -4.93072e-13 0)
(-2.24776e-17 -4.92788e-13 0)
(-6.71767e-17 -4.92789e-13 0)
(-1.11309e-16 -4.9279e-13 0)
(-1.54766e-16 -4.92792e-13 0)
(-1.97447e-16 -4.92794e-13 0)
(-2.39255e-16 -4.92796e-13 0)
(-2.80096e-16 -4.928e-13 0)
(-3.19884e-16 -4.92803e-13 0)
(-3.58534e-16 -4.92807e-13 0)
(-3.95966e-16 -4.92812e-13 0)
(-4.32104e-16 -4.92816e-13 0)
(-4.66876e-16 -4.92822e-13 0)
(-5.00213e-16 -4.92827e-13 0)
(-5.32051e-16 -4.92833e-13 0)
(-5.62327e-16 -4.9284e-13 0)
(-5.90986e-16 -4.92846e-13 0)
(-6.17974e-16 -4.92853e-13 0)
(-6.43241e-16 -4.9286e-13 0)
(-6.66743e-16 -4.92868e-13 0)
(-6.88439e-16 -4.92875e-13 0)
(-7.08292e-16 -4.92883e-13 0)
(-7.26272e-16 -4.92891e-13 0)
(-7.42353e-16 -4.929e-13 0)
(-7.56511e-16 -4.92908e-13 0)
(-7.68733e-16 -4.92917e-13 0)
(-7.79005e-16 -4.92925e-13 0)
(-7.87324e-16 -4.92934e-13 0)
(-7.9369e-16 -4.92943e-13 0)
(-7.98108e-16 -4.92951e-13 0)
(-8.0059e-16 -4.9296e-13 0)
(-8.01155e-16 -4.92969e-13 0)
(-7.99825e-16 -4.92978e-13 0)
(-7.96629e-16 -4.92986e-13 0)
(-7.91603e-16 -4.92995e-13 0)
(-7.84786e-16 -4.93003e-13 0)
(-7.76224e-16 -4.93012e-13 0)
(-7.65968e-16 -4.9302e-13 0)
(-7.54074e-16 -4.93028e-13 0)
(-7.40601e-16 -4.93036e-13 0)
(-7.25613e-16 -4.93043e-13 0)
(-7.09179e-16 -4.93051e-13 0)
(-6.9137e-16 -4.93058e-13 0)
(-6.7226e-16 -4.93065e-13 0)
(-6.51927e-16 -4.93071e-13 0)
(-6.3045e-16 -4.93078e-13 0)
(-6.0791e-16 -4.93084e-13 0)
(-5.84388e-16 -4.93089e-13 0)
(-5.59968e-16 -4.93095e-13 0)
(-5.34733e-16 -4.931e-13 0)
(-5.08765e-16 -4.93105e-13 0)
(-4.82148e-16 -4.93109e-13 0)
(-4.54963e-16 -4.93114e-13 0)
(-4.2729e-16 -4.93118e-13 0)
(-3.99209e-16 -4.93121e-13 0)
(-3.70796e-16 -4.93124e-13 0)
(-3.42126e-16 -4.93127e-13 0)
(-3.13272e-16 -4.9313e-13 0)
(-2.84303e-16 -4.93132e-13 0)
(-2.55286e-16 -4.93134e-13 0)
(-2.26286e-16 -4.93136e-13 0)
(-1.97363e-16 -4.93137e-13 0)
(-1.68575e-16 -4.93139e-13 0)
(-1.39977e-16 -4.93139e-13 0)
(-1.11619e-16 -4.9314e-13 0)
(-8.35488e-17 -4.9314e-13 0)
(-5.58116e-17 -4.9314e-13 0)
(-2.84482e-17 -4.9314e-13 0)
(-1.49612e-18 -4.9314e-13 0)
(2.501e-17 -4.93139e-13 0)
(5.1039e-17 -4.93139e-13 0)
(7.65628e-17 -4.93138e-13 0)
(1.01556e-16 -4.93136e-13 0)
(1.25997e-16 -4.93135e-13 0)
(1.49866e-16 -4.93133e-13 0)
(1.73146e-16 -4.93132e-13 0)
(1.95824e-16 -4.9313e-13 0)
(2.17888e-16 -4.93128e-13 0)
(2.39329e-16 -4.93126e-13 0)
(2.60139e-16 -4.93123e-13 0)
(2.80313e-16 -4.93121e-13 0)
(-3.18208e-17 -4.9271e-13 0)
(-9.51179e-17 -4.92711e-13 0)
(-1.57665e-16 -4.92712e-13 0)
(-2.19343e-16 -4.92714e-13 0)
(-2.80036e-16 -4.92717e-13 0)
(-3.39635e-16 -4.92721e-13 0)
(-3.98031e-16 -4.92725e-13 0)
(-4.55119e-16 -4.9273e-13 0)
(-5.10798e-16 -4.92735e-13 0)
(-5.64966e-16 -4.92741e-13 0)
(-6.17524e-16 -4.92748e-13 0)
(-6.68375e-16 -4.92755e-13 0)
(-7.17422e-16 -4.92763e-13 0)
(-7.64571e-16 -4.92771e-13 0)
(-8.09728e-16 -4.92779e-13 0)
(-8.52802e-16 -4.92789e-13 0)
(-8.93703e-16 -4.92798e-13 0)
(-9.32344e-16 -4.92808e-13 0)
(-9.68638e-16 -4.92819e-13 0)
(-1.00251e-15 -4.9283e-13 0)
(-1.03387e-15 -4.92841e-13 0)
(-1.06265e-15 -4.92853e-13 0)
(-1.08878e-15 -4.92865e-13 0)
(-1.1122e-15 -4.92877e-13 0)
(-1.13284e-15 -4.92889e-13 0)
(-1.15066e-15 -4.92902e-13 0)
(-1.16561e-15 -4.92915e-13 0)
(-1.17766e-15 -4.92928e-13 0)
(-1.18677e-15 -4.92941e-13 0)
(-1.19293e-15 -4.92954e-13 0)
(-1.19614e-15 -4.92968e-13 0)
(-1.19638e-15 -4.92981e-13 0)
(-1.19367e-15 -4.92994e-13 0)
(-1.18805e-15 -4.93007e-13 0)
(-1.17953e-15 -4.9302e-13 0)
(-1.16816e-15 -4.93033e-13 0)
(-1.15401e-15 -4.93046e-13 0)
(-1.13714e-15 -4.93059e-13 0)
(-1.11762e-15 -4.93071e-13 0)
(-1.09556e-15 -4.93083e-13 0)
(-1.07104e-15 -4.93095e-13 0)
(-1.04417e-15 -4.93106e-13 0)
(-1.01508e-15 -4.93117e-13 0)
(-9.83873e-16 -4.93127e-13 0)
(-9.50694e-16 -4.93137e-13 0)
(-9.15676e-16 -4.93147e-13 0)
(-8.78958e-16 -4.93156e-13 0)
(-8.40684e-16 -4.93165e-13 0)
(-8.01e-16 -4.93173e-13 0)
(-7.60054e-16 -4.9318e-13 0)
(-7.17992e-16 -4.93187e-13 0)
(-6.74962e-16 -4.93194e-13 0)
(-6.31111e-16 -4.932e-13 0)
(-5.8658e-16 -4.93205e-13 0)
(-5.41512e-16 -4.9321e-13 0)
(-4.96041e-16 -4.93214e-13 0)
(-4.50302e-16 -4.93218e-13 0)
(-4.04421e-16 -4.93221e-13 0)
(-3.58521e-16 -4.93224e-13 0)
(-3.12718e-16 -4.93226e-13 0)
(-2.67124e-16 -4.93228e-13 0)
(-2.21842e-16 -4.9323e-13 0)
(-1.76972e-16 -4.9323e-13 0)
(-1.32604e-16 -4.93231e-13 0)
(-8.88242e-17 -4.93231e-13 0)
(-4.57101e-17 -4.9323e-13 0)
(-3.33378e-18 -4.93229e-13 0)
(3.82397e-17 -4.93228e-13 0)
(7.89518e-17 -4.93227e-13 0)
(1.1875e-16 -4.93225e-13 0)
(1.57589e-16 -4.93222e-13 0)
(1.95427e-16 -4.9322e-13 0)
(2.32232e-16 -4.93217e-13 0)
(2.67974e-16 -4.93214e-13 0)
(3.02631e-16 -4.93211e-13 0)
(3.36183e-16 -4.93207e-13 0)
(3.68617e-16 -4.93203e-13 0)
(3.99925e-16 -4.93199e-13 0)
(4.30101e-16 -4.93195e-13 0)
(4.59145e-16 -4.93191e-13 0)
(-4.39718e-17 -4.92601e-13 0)
(-1.31476e-16 -4.92601e-13 0)
(-2.18049e-16 -4.92603e-13 0)
(-3.03592e-16 -4.92606e-13 0)
(-3.88007e-16 -4.9261e-13 0)
(-4.71197e-16 -4.92614e-13 0)
(-5.53062e-16 -4.92619e-13 0)
(-6.33504e-16 -4.92625e-13 0)
(-7.12417e-16 -4.92632e-13 0)
(-7.89696e-16 -4.9264e-13 0)
(-8.6523e-16 -4.92648e-13 0)
(-9.38903e-16 -4.92657e-13 0)
(-1.01059e-15 -4.92667e-13 0)
(-1.08018e-15 -4.92678e-13 0)
(-1.14752e-15 -4.92689e-13 0)
(-1.21249e-15 -4.92702e-13 0)
(-1.27494e-15 -4.92715e-13 0)
(-1.33473e-15 -4.92728e-13 0)
(-1.3917e-15 -4.92742e-13 0)
(-1.4457e-15 -4.92757e-13 0)
(-1.49657e-15 -4.92773e-13 0)
(-1.54416e-15 -4.92789e-13 0)
(-1.58829e-15 -4.92806e-13 0)
(-1.62882e-15 -4.92823e-13 0)
(-1.66558e-15 -4.92841e-13 0)
(-1.69841e-15 -4.9286e-13 0)
(-1.72717e-15 -4.92879e-13 0)
(-1.75172e-15 -4.92898e-13 0)
(-1.77192e-15 -4.92918e-13 0)
(-1.78765e-15 -4.92938e-13 0)
(-1.79881e-15 -4.92958e-13 0)
(-1.8053e-15 -4.92978e-13 0)
(-1.80705e-15 -4.92999e-13 0)
(-1.804e-15 -4.9302e-13 0)
(-1.79613e-15 -4.9304e-13 0)
(-1.78343e-15 -4.93061e-13 0)
(-1.76591e-15 -4.93081e-13 0)
(-1.74363e-15 -4.93101e-13 0)
(-1.71666e-15 -4.93121e-13 0)
(-1.68509e-15 -4.93141e-13 0)
(-1.64906e-15 -4.9316e-13 0)
(-1.60873e-15 -4.93179e-13 0)
(-1.56428e-15 -4.93197e-13 0)
(-1.5159e-15 -4.93214e-13 0)
(-1.46382e-15 -4.93231e-13 0)
(-1.40829e-15 -4.93247e-13 0)
(-1.34956e-15 -4.93262e-13 0)
(-1.2879e-15 -4.93276e-13 0)
(-1.22359e-15 -4.93289e-13 0)
(-1.15692e-15 -4.93301e-13 0)
(-1.08816e-15 -4.93313e-13 0)
(-1.01761e-15 -4.93323e-13 0)
(-9.45548e-16 -4.93333e-13 0)
(-8.72263e-16 -4.93341e-13 0)
(-7.98028e-16 -4.93349e-13 0)
(-7.23112e-16 -4.93356e-13 0)
(-6.47777e-16 -4.93361e-13 0)
(-5.72271e-16 -4.93366e-13 0)
(-4.96836e-16 -4.9337e-13 0)
(-4.21699e-16 -4.93373e-13 0)
(-3.47075e-16 -4.93375e-13 0)
(-2.73168e-16 -4.93376e-13 0)
(-2.00166e-16 -4.93376e-13 0)
(-1.28246e-16 -4.93376e-13 0)
(-5.75683e-17 -4.93374e-13 0)
(1.17178e-17 -4.93372e-13 0)
(7.94787e-17 -4.9337e-13 0)
(1.45594e-16 -4.93366e-13 0)
(2.09957e-16 -4.93362e-13 0)
(2.72475e-16 -4.93358e-13 0)
(3.33068e-16 -4.93353e-13 0)
(3.91668e-16 -4.93348e-13 0)
(4.48223e-16 -4.93342e-13 0)
(5.02688e-16 -4.93335e-13 0)
(5.55034e-16 -4.93328e-13 0)
(6.0524e-16 -4.93321e-13 0)
(6.53297e-16 -4.93314e-13 0)
(6.99204e-16 -4.93306e-13 0)
(7.42972e-16 -4.93299e-13 0)
(7.84616e-16 -4.9329e-13 0)
(-5.84817e-17 -4.92453e-13 0)
(-1.74925e-16 -4.92454e-13 0)
(-2.90321e-16 -4.92456e-13 0)
(-4.04658e-16 -4.92459e-13 0)
(-5.17917e-16 -4.92463e-13 0)
(-6.30074e-16 -4.92468e-13 0)
(-7.41099e-16 -4.92473e-13 0)
(-8.5095e-16 -4.9248e-13 0)
(-9.59575e-16 -4.92488e-13 0)
(-1.06691e-15 -4.92497e-13 0)
(-1.17288e-15 -4.92506e-13 0)
(-1.27739e-15 -4.92517e-13 0)
(-1.38033e-15 -4.92529e-13 0)
(-1.48158e-15 -4.92541e-13 0)
(-1.581e-15 -4.92555e-13 0)
(-1.67842e-15 -4.9257e-13 0)
(-1.77365e-15 -4.92586e-13 0)
(-1.86651e-15 -4.92602e-13 0)
(-1.95675e-15 -4.9262e-13 0)
(-2.04414e-15 -4.92639e-13 0)
(-2.1284e-15 -4.92659e-13 0)
(-2.20925e-15 -4.92681e-13 0)
(-2.28636e-15 -4.92703e-13 0)
(-2.35941e-15 -4.92727e-13 0)
(-2.42805e-15 -4.92751e-13 0)
(-2.49189e-15 -4.92777e-13 0)
(-2.55055e-15 -4.92804e-13 0)
(-2.60364e-15 -4.92831e-13 0)
(-2.65074e-15 -4.9286e-13 0)
(-2.69145e-15 -4.9289e-13 0)
(-2.72535e-15 -4.92921e-13 0)
(-2.75205e-15 -4.92953e-13 0)
(-2.77115e-15 -4.92985e-13 0)
(-2.7823e-15 -4.93018e-13 0)
(-2.78518e-15 -4.93051e-13 0)
(-2.7795e-15 -4.93085e-13 0)
(-2.76503e-15 -4.9312e-13 0)
(-2.74162e-15 -4.93154e-13 0)
(-2.70916e-15 -4.93188e-13 0)
(-2.66767e-15 -4.93222e-13 0)
(-2.61724e-15 -4.93258e-13 0)
(-2.55804e-15 -4.93295e-13 0)
(-2.49036e-15 -4.93333e-13 0)
(-2.41455e-15 -4.93371e-13 0)
(-2.33105e-15 -4.93412e-13 0)
(-2.24035e-15 -4.93456e-13 0)
(-2.14301e-15 -4.93506e-13 0)
(-2.0396e-15 -4.93561e-13 0)
(-1.93074e-15 -4.93625e-13 0)
(-1.81706e-15 -4.93697e-13 0)
(-1.69916e-15 -4.93779e-13 0)
(-1.57769e-15 -4.9387e-13 0)
(-1.45326e-15 -4.93969e-13 0)
(-1.32647e-15 -4.94075e-13 0)
(-1.19791e-15 -4.94184e-13 0)
(-1.06813e-15 -4.94293e-13 0)
(-9.37688e-16 -4.94398e-13 0)
(-8.07094e-16 -4.94495e-13 0)
(-6.76842e-16 -4.94581e-13 0)
(-5.47398e-16 -4.94661e-13 0)
(-4.19201e-16 -4.94729e-13 0)
(-2.92661e-16 -4.9477e-13 0)
(-1.6816e-16 -4.9478e-13 0)
(-4.60523e-17 -4.94763e-13 0)
(7.33359e-17 -4.94721e-13 0)
(1.89705e-16 -4.94658e-13 0)
(3.02783e-16 -4.94578e-13 0)
(4.12325e-16 -4.94487e-13 0)
(5.18113e-16 -4.94387e-13 0)
(6.19959e-16 -4.94283e-13 0)
(7.17702e-16 -4.9418e-13 0)
(8.1121e-16 -4.94079e-13 0)
(9.0038e-16 -4.93983e-13 0)
(9.8514e-16 -4.93893e-13 0)
(1.06544e-15 -4.93812e-13 0)
(1.14128e-15 -4.93739e-13 0)
(1.21266e-15 -4.93674e-13 0)
(1.27962e-15 -4.93616e-13 0)
(1.34224e-15 -4.93566e-13 0)
(1.40061e-15 -4.93521e-13 0)
(-7.33957e-17 -4.92262e-13 0)
(-2.19632e-16 -4.92263e-13 0)
(-3.64845e-16 -4.92265e-13 0)
(-5.09202e-16 -4.92268e-13 0)
(-6.52859e-16 -4.92271e-13 0)
(-7.95959e-16 -4.92276e-13 0)
(-9.38634e-16 -4.92281e-13 0)
(-1.081e-15 -4.92287e-13 0)
(-1.22315e-15 -4.92294e-13 0)
(-1.36518e-15 -4.92302e-13 0)
(-1.50715e-15 -4.92312e-13 0)
(-1.6491e-15 -4.92322e-13 0)
(-1.79106e-15 -4.92333e-13 0)
(-1.93302e-15 -4.92345e-13 0)
(-2.07495e-15 -4.92359e-13 0)
(-2.21679e-15 -4.92374e-13 0)
(-2.35843e-15 -4.9239e-13 0)
(-2.49975e-15 -4.92407e-13 0)
(-2.64056e-15 -4.92426e-13 0)
(-2.78064e-15 -4.92447e-13 0)
(-2.9197e-15 -4.92469e-13 0)
(-3.0574e-15 -4.92493e-13 0)
(-3.19333e-15 -4.92519e-13 0)
(-3.32702e-15 -4.92547e-13 0)
(-3.45789e-15 -4.92577e-13 0)
(-3.58533e-15 -4.92609e-13 0)
(-3.70857e-15 -4.92643e-13 0)
(-3.82681e-15 -4.9268e-13 0)
(-3.93911e-15 -4.92719e-13 0)
(-4.04442e-15 -4.92761e-13 0)
(-4.14162e-15 -4.92805e-13 0)
(-4.22946e-15 -4.92852e-13 0)
(-4.30659e-15 -4.92902e-13 0)
(-4.37159e-15 -4.92955e-13 0)
(-4.42297e-15 -4.9301e-13 0)
(-4.45918e-15 -4.93068e-13 0)
(-4.47867e-15 -4.93128e-13 0)
(-4.47995e-15 -4.9319e-13 0)
(-4.46162e-15 -4.93254e-13 0)
(-4.42251e-15 -6.03398e-13 0)
(-4.36235e-15 -9.33098e-12 0)
(-4.2812e-15 -2.82048e-11 0)
(-4.17919e-15 -5.05557e-11 0)
(-4.05716e-15 -8.18708e-11 0)
(-3.91651e-15 -1.27401e-10 0)
(-3.75887e-15 -1.923e-10 0)
(-3.58599e-15 -2.8192e-10 0)
(-3.39965e-15 -4.01491e-10 0)
(-3.20159e-15 -5.55528e-10 0)
(-2.99348e-15 -7.4713e-10 0)
(-2.77691e-15 -9.77339e-10 0)
(-2.55337e-15 -1.24456e-09 0)
(-2.32424e-15 -1.54418e-09 0)
(-2.09081e-15 -1.86873e-09 0)
(-1.85426e-15 -2.20802e-09 0)
(-1.61572e-15 -2.54968e-09 0)
(-1.37624e-15 -2.88045e-09 0)
(-1.13683e-15 -3.1874e-09 0)
(-8.9844e-16 -3.46122e-09 0)
(-6.62058e-16 -3.71888e-09 0)
(-4.28611e-16 -3.94056e-09 0)
(-1.98907e-16 -4.07449e-09 0)
(2.63418e-17 -4.11244e-09 0)
(2.46461e-16 -4.06363e-09 0)
(4.60784e-16 -3.93778e-09 0)
(6.68645e-16 -3.74636e-09 0)
(8.69409e-16 -3.50242e-09 0)
(1.06247e-15 -3.21975e-09 0)
(1.24728e-15 -2.91208e-09 0)
(1.4233e-15 -2.59242e-09 0)
(1.59006e-15 -2.27242e-09 0)
(1.74713e-15 -1.96203e-09 0)
(1.89412e-15 -1.66917e-09 0)
(2.03073e-15 -1.39961e-09 0)
(2.1567e-15 -1.15707e-09 0)
(2.27186e-15 -9.43379e-10 0)
(2.37613e-15 -7.58744e-10 0)
(2.46956e-15 -6.02054e-10 0)
(2.55233e-15 -4.7104e-10 0)
(2.62477e-15 -3.60614e-10 0)
(-8.46742e-17 -4.92034e-13 0)
(-2.53492e-16 -4.92035e-13 0)
(-4.21452e-16 -4.92036e-13 0)
(-5.8896e-16 -4.92037e-13 0)
(-7.56403e-16 -4.92039e-13 0)
(-9.24161e-16 -4.92041e-13 0)
(-1.0926e-15 -4.92044e-13 0)
(-1.26209e-15 -4.92048e-13 0)
(-1.43298e-15 -4.92051e-13 0)
(-1.60563e-15 -4.92056e-13 0)
(-1.78039e-15 -4.92061e-13 0)
(-1.95761e-15 -4.92067e-13 0)
(-2.13764e-15 -4.92074e-13 0)
(-2.32083e-15 -4.92081e-13 0)
(-2.50752e-15 -4.92089e-13 0)
(-2.69806e-15 -4.92099e-13 0)
(-2.89278e-15 -4.92109e-13 0)
(-3.09201e-15 -4.9212e-13 0)
(-3.29606e-15 -4.92133e-13 0)
(-3.50521e-15 -4.92147e-13 0)
(-3.71974e-15 -4.92163e-13 0)
(-3.93985e-15 -4.92181e-13 0)
(-4.16571e-15 -4.92201e-13 0)
(-4.3974e-15 -4.92223e-13 0)
(-4.63493e-15 -4.92247e-13 0)
(-4.87815e-15 -4.92275e-13 0)
(-5.12679e-15 -4.92306e-13 0)
(-5.38034e-15 -4.9234e-13 0)
(-5.63808e-15 -4.92379e-13 0)
(-5.89894e-15 -4.92422e-13 0)