/*--------------------------------*- C++ -*----------------------------------*\
  =========                 |
  \\      /  F ield         | OpenFOAM: The Open Source CFD Toolbox
   \\    /   O peration     | Website:  https://openfoam.org
    \\  /    A nd           | Version:  8
     \\/     M anipulation  |
\*---------------------------------------------------------------------------*/
FoamFile
{
    version     2.0;
    format      ascii;
    class       volScalarField;
    location    "1000";
    object      p;
}
// * * * * * * * * * * * * * * * * * * * * * * * * * * * * * * * * * * * * * //

dimensions      [1 -1 -2 0 0 0 0];

internalField   nonuniform List<scalar> 
12800
(
215.177
215.177
215.177
215.177
215.177
215.177
215.177
215.177
215.177
215.177
215.177
215.177
215.177
215.177
215.177
215.177
215.177
215.177
215.177
215.177
215.177
215.177
215.177
215.177
215.177
215.177
215.177
215.177
215.177
215.177
215.177
215.177
215.177
215.177
215.177
215.177
215.177
215.177
215.177
215.177
215.177
215.177
215.177
215.177
215.177
215.178
215.178
215.178
215.178
215.178
215.178
215.178
215.178
215.178
215.178
215.178
215.178
215.178
215.178
215.178
215.178
215.178
215.178
215.178
215.178
215.178
215.178
215.178
215.178
215.178
215.178
215.178
215.178
215.178
215.178
215.178
215.178
215.178
215.178
215.178
213.951
213.951
213.951
213.951
213.951
213.951
213.951
213.951
213.951
213.951
213.951
213.951
213.951
213.951
213.951
213.951
213.951
213.951
213.951
213.951
213.951
213.951
213.951
213.951
213.951
213.951
213.951
213.951
213.951
213.951
213.951
213.951
213.951
213.951
213.951
213.951
213.951
213.951
213.951
213.951
213.951
213.951
213.951
213.951
213.951
213.951
213.951
213.951
213.951
213.951
213.951
213.951
213.951
213.951
213.951
213.951
213.951
213.951
213.951
213.951
213.951
213.951
213.951
213.951
213.951
213.951
213.951
213.951
213.951
213.951
213.952
213.952
213.952
213.952
213.952
213.952
213.952
213.952
213.952
213.952
212.725
212.725
212.725
212.725
212.725
212.725
212.725
212.725
212.725
212.725
212.725
212.725
212.725
212.725
212.725
212.725
212.725
212.725
212.725
212.725
212.725
212.725
212.725
212.725
212.725
212.725
212.725
212.725
212.725
212.725
212.725
212.725
212.725
212.725
212.725
212.725
212.725
212.725
212.725
212.725
212.725
212.725
212.725
212.725
212.725
212.725
212.725
212.725
212.725
212.725
212.725
212.725
212.725
212.725
212.725
212.725
212.725
212.725
212.725
212.725
212.725
212.725
212.725
212.725
212.725
212.725
212.725
212.725
212.725
212.725
212.725
212.725
212.725
212.725
212.725
212.725
212.725
212.725
212.725
212.725
211.498
211.498
211.498
211.498
211.498
211.498
211.498
211.498
211.498
211.498
211.498
211.498
211.498
211.498
211.498
211.498
211.498
211.498
211.498
211.498
211.498
211.498
211.498
211.498
211.498
211.498
211.498
211.498
211.498
211.499
211.499
211.499
211.499
211.499
211.499
211.499
211.499
211.499
211.499
211.499
211.499
211.499
211.499
211.499
211.499
211.499
211.499
211.499
211.499
211.499
211.499
211.499
211.499
211.499
211.499
211.499
211.499
211.499
211.499
211.499
211.499
211.499
211.499
211.499
211.499
211.499
211.499
211.499
211.499
211.499
211.499
211.499
211.499
211.499
211.499
211.499
211.499
211.499
211.499
211.499
210.272
210.272
210.272
210.272
210.272
210.272
210.272
210.272
210.272
210.272
210.272
210.272
210.272
210.272
210.272
210.272
210.272
210.272
210.272
210.272
210.272
210.272
210.272
210.272
210.272
210.272
210.272
210.272
210.272
210.272
210.272
210.272
210.272
210.272
210.272
210.272
210.272
210.272
210.272
210.272
210.272
210.272
210.272
210.272
210.272
210.272
210.272
210.272
210.272
210.272
210.272
210.272
210.272
210.273
210.273
210.273
210.273
210.273
210.273
210.273
210.273
210.273
210.273
210.273
210.273
210.273
210.273
210.273
210.273
210.273
210.273
210.273
210.273
210.273
210.273
210.273
210.273
210.273
210.273
210.273
209.046
209.046
209.046
209.046
209.046
209.046
209.046
209.046
209.046
209.046
209.046
209.046
209.046
209.046
209.046
209.046
209.046
209.046
209.046
209.046
209.046
209.046
209.046
209.046
209.046
209.046
209.046
209.046
209.046
209.046
209.046
209.046
209.046
209.046
209.046
209.046
209.046
209.046
209.046
209.046
209.046
209.046
209.046
209.046
209.046
209.046
209.046
209.046
209.046
209.046
209.046
209.046
209.046
209.046
209.046
209.046
209.046
209.046
209.046
209.046
209.046
209.046
209.046
209.046
209.046
209.046
209.046
209.046
209.046
209.046
209.046
209.046
209.046
209.047
209.047
209.047
209.047
209.047
209.047
209.047
207.819
207.819
207.819
207.819
207.819
207.819
207.819
207.819
207.819
207.819
207.819
207.819
207.819
207.819
207.819
207.819
207.819
207.819
207.819
207.819
207.819
207.819
207.819
207.819
207.819
207.819
207.819
207.819
207.819
207.819
207.82
207.82
207.82
207.82
207.82
207.82
207.82
207.82
207.82
207.82
207.82
207.82
207.82
207.82
207.82
207.82
207.82
207.82
207.82
207.82
207.82
207.82
207.82
207.82
207.82
207.82
207.82
207.82
207.82
207.82
207.82
207.82
207.82
207.82
207.82
207.82
207.82
207.82
207.82
207.82
207.82
207.82
207.82
207.82
207.82
207.82
207.82
207.82
207.82
207.82
206.593
206.593
206.593
206.593
206.593
206.593
206.593
206.593
206.593
206.593
206.593
206.593
206.593
206.593
206.593
206.593
206.593
206.593
206.593
206.593
206.593
206.593
206.593
206.593
206.593
206.593
206.593
206.593
206.593
206.593
206.593
206.593
206.593
206.593
206.593
206.593
206.593
206.593
206.593
206.593
206.593
206.593
206.593
206.593
206.593
206.593
206.593
206.593
206.593
206.594
206.594
206.594
206.594
206.594
206.594
206.594
206.594
206.594
206.594
206.594
206.594
206.594
206.594
206.594
206.594
206.594
206.594
206.594
206.594
206.594
206.594
206.594
206.594
206.594
206.594
206.594
206.594
206.594
206.594
206.594
205.366
205.366
205.366
205.366
205.366
205.366
205.366
205.366
205.366
205.366
205.366
205.366
205.366
205.366
205.366
205.366
205.366
205.366
205.366
205.367
205.367
205.367
205.367
205.367
205.367
205.367
205.367
205.367
205.367
205.367
205.367
205.367
205.367
205.367
205.367
205.367
205.367
205.367
205.367
205.367
205.367
205.367
205.367
205.367
205.367
205.367
205.367
205.367
205.367
205.367
205.367
205.367
205.367
205.367
205.367
205.367
205.367
205.367
205.367
205.367
205.367
205.367
205.367
205.367
205.368
205.368
205.368
205.368
205.368
205.368
205.368
205.368
205.368
205.368
205.368
205.368
205.368
205.368
205.368
205.368
204.14
204.14
204.14
204.14
204.14
204.14
204.14
204.14
204.14
204.14
204.14
204.14
204.14
204.14
204.14
204.14
204.14
204.14
204.14
204.14
204.14
204.14
204.14
204.14
204.14
204.14
204.14
204.14
204.14
204.14
204.14
204.14
204.14
204.14
204.14
204.14
204.14
204.14
204.14
204.141
204.141
204.141
204.141
204.141
204.141
204.141
204.141
204.141
204.141
204.141
204.141
204.141
204.141
204.141
204.141
204.141
204.141
204.141
204.141
204.141
204.141
204.141
204.141
204.141
204.141
204.141
204.141
204.141
204.141
204.141
204.141
204.141
204.141
204.141
204.141
204.141
204.142
204.142
204.142
204.142
202.913
202.913
202.913
202.913
202.913
202.913
202.913
202.913
202.913
202.913
202.913
202.913
202.913
202.913
202.913
202.913
202.913
202.913
202.913
202.914
202.914
202.914
202.914
202.914
202.914
202.914
202.914
202.914
202.914
202.914
202.914
202.914
202.914
202.914
202.914
202.914
202.914
202.914
202.914
202.914
202.914
202.914
202.914
202.914
202.914
202.914
202.914
202.914
202.914
202.914
202.914
202.914
202.914
202.915
202.915
202.915
202.915
202.915
202.915
202.915
202.915
202.915
202.915
202.915
202.915
202.915
202.915
202.915
202.915
202.915
202.915
202.915
202.915
202.915
202.915
202.915
202.915
202.915
202.915
202.915
201.687
201.687
201.687
201.687
201.687
201.687
201.687
201.687
201.687
201.687
201.687
201.687
201.687
201.687
201.687
201.687
201.687
201.687
201.687
201.687
201.687
201.687
201.687
201.687
201.687
201.687
201.687
201.687
201.687
201.687
201.687
201.687
201.687
201.687
201.687
201.687
201.687
201.688
201.688
201.688
201.688
201.688
201.688
201.688
201.688
201.688
201.688
201.688
201.688
201.688
201.688
201.688
201.688
201.688
201.688
201.688
201.688
201.688
201.688
201.688
201.688
201.688
201.688
201.689
201.689
201.689
201.689
201.689
201.689
201.689
201.689
201.689
201.689
201.689
201.689
201.689
201.689
201.689
201.689
201.689
200.46
200.46
200.46
200.46
200.46
200.46
200.46
200.46
200.46
200.46
200.46
200.46
200.46
200.46
200.46
200.46
200.46
200.46
200.46
200.46
200.46
200.46
200.46
200.46
200.46
200.46
200.461
200.461
200.461
200.461
200.461
200.461
200.461
200.461
200.461
200.461
200.461
200.461
200.461
200.461
200.461
200.461
200.461
200.461
200.461
200.461
200.461
200.461
200.461
200.462
200.462
200.462
200.462
200.462
200.462
200.462
200.462
200.462
200.462
200.462
200.462
200.462
200.462
200.462
200.462
200.462
200.462
200.462
200.462
200.462
200.462
200.462
200.463
200.463
200.463
200.463
200.463
200.463
200.463
200.463
199.233
199.233
199.233
199.233
199.233
199.233
199.233
199.233
199.233
199.233
199.233
199.233
199.233
199.233
199.233
199.233
199.233
199.233
199.233
199.234
199.234
199.234
199.234
199.234
199.234
199.234
199.234
199.234
199.234
199.234
199.234
199.234
199.234
199.234
199.234
199.234
199.234
199.234
199.234
199.234
199.235
199.235
199.235
199.235
199.235
199.235
199.235
199.235
199.235
199.235
199.235
199.235
199.235
199.235
199.235
199.235
199.235
199.235
199.236
199.236
199.236
199.236
199.236
199.236
199.236
199.236
199.236
199.236
199.236
199.236
199.236
199.236
199.236
199.236
199.236
199.236
199.236
199.236
199.237
199.237
198.006
198.006
198.006
198.006
198.006
198.006
198.006
198.006
198.006
198.006
198.006
198.006
198.006
198.006
198.006
198.007
198.007
198.007
198.007
198.007
198.007
198.007
198.007
198.007
198.007
198.007
198.007
198.007
198.007
198.007
198.007
198.007
198.007
198.007
198.008
198.008
198.008
198.008
198.008
198.008
198.008
198.008
198.008
198.008
198.008
198.008
198.008
198.008
198.008
198.008
198.009
198.009
198.009
198.009
198.009
198.009
198.009
198.009
198.009
198.009
198.009
198.009
198.009
198.009
198.009
198.009
198.01
198.01
198.01
198.01
198.01
198.01
198.01
198.01
198.01
198.01
198.01
198.01
198.01
198.01
196.779
196.779
196.779
196.779
196.779
196.779
196.779
196.779
196.779
196.779
196.779
196.779
196.779
196.779
196.78
196.78
196.78
196.78
196.78
196.78
196.78
196.78
196.78
196.78
196.78
196.78
196.78
196.78
196.78
196.78
196.78
196.781
196.781
196.781
196.781
196.781
196.781
196.781
196.781
196.781
196.781
196.781
196.781
196.781
196.781
196.782
196.782
196.782
196.782
196.782
196.782
196.782
196.782
196.782
196.782
196.782
196.782
196.782
196.783
196.783
196.783
196.783
196.783
196.783
196.783
196.783
196.783
196.783
196.783
196.783
196.783
196.784
196.784
196.784
196.784
196.784
196.784
196.784
196.784
196.784
195.552
195.552
195.552
195.552
195.552
195.552
195.552
195.552
195.552
195.552
195.552
195.552
195.552
195.552
195.552
195.552
195.552
195.553
195.553
195.553
195.553
195.553
195.553
195.553
195.553
195.553
195.553
195.553
195.553
195.553
195.553
195.554
195.554
195.554
195.554
195.554
195.554
195.554
195.554
195.554
195.554
195.554
195.555
195.555
195.555
195.555
195.555
195.555
195.555
195.555
195.555
195.555
195.555
195.556
195.556
195.556
195.556
195.556
195.556
195.556
195.556
195.556
195.556
195.556
195.557
195.557
195.557
195.557
195.557
195.557
195.557
195.557
195.557
195.557
195.557
195.558
195.558
195.558
195.558
195.558
194.325
194.325
194.325
194.325
194.325
194.325
194.325
194.325
194.325
194.325
194.325
194.325
194.325
194.325
194.325
194.325
194.325
194.325
194.325
194.325
194.326
194.326
194.326
194.326
194.326
194.326
194.326
194.326
194.326
194.326
194.326
194.327
194.327
194.327
194.327
194.327
194.327
194.327
194.327
194.327
194.327
194.328
194.328
194.328
194.328
194.328
194.328
194.328
194.328
194.328
194.329
194.329
194.329
194.329
194.329
194.329
194.329
194.329
194.329
194.33
194.33
194.33
194.33
194.33
194.33
194.33
194.33
194.33
194.33
194.331
194.331
194.331
194.331
194.331
194.331
194.331
194.331
194.331
194.331
194.332
193.097
193.097
193.097
193.097
193.097
193.097
193.097
193.097
193.097
193.097
193.097
193.097
193.097
193.098
193.098
193.098
193.098
193.098
193.098
193.098
193.098
193.098
193.098
193.098
193.098
193.099
193.099
193.099
193.099
193.099
193.099
193.099
193.099
193.1
193.1
193.1
193.1
193.1
193.1
193.1
193.1
193.101
193.101
193.101
193.101
193.101
193.101
193.101
193.101
193.102
193.102
193.102
193.102
193.102
193.102
193.102
193.103
193.103
193.103
193.103
193.103
193.103
193.103
193.103
193.104
193.104
193.104
193.104
193.104
193.104
193.104
193.104
193.105
193.105
193.105
193.105
193.105
193.105
193.105
193.105
191.869
191.869
191.869
191.869
191.869
191.869
191.869
191.869
191.869
191.869
191.87
191.87
191.87
191.87
191.87
191.87
191.87
191.87
191.87
191.87
191.87
191.871
191.871
191.871
191.871
191.871
191.871
191.871
191.871
191.872
191.872
191.872
191.872
191.872
191.872
191.872
191.873
191.873
191.873
191.873
191.873
191.873
191.874
191.874
191.874
191.874
191.874
191.874
191.874
191.875
191.875
191.875
191.875
191.875
191.875
191.876
191.876
191.876
191.876
191.876
191.876
191.876
191.877
191.877
191.877
191.877
191.877
191.877
191.878
191.878
191.878
191.878
191.878
191.878
191.878
191.879
191.879
191.879
191.879
191.879
190.641
190.641
190.641
190.641
190.641
190.641
190.641
190.641
190.641
190.641
190.641
190.642
190.642
190.642
190.642
190.642
190.642
190.642
190.642
190.642
190.643
190.643
190.643
190.643
190.643
190.643
190.643
190.644
190.644
190.644
190.644
190.644
190.644
190.645
190.645
190.645
190.645
190.645
190.645
190.646
190.646
190.646
190.646
190.646
190.647
190.647
190.647
190.647
190.647
190.648
190.648
190.648
190.648
190.648
190.648
190.649
190.649
190.649
190.649
190.649
190.65
190.65
190.65
190.65
190.65
190.65
190.651
190.651
190.651
190.651
190.651
190.652
190.652
190.652
190.652
190.652
190.652
190.653
190.653
190.653
189.412
189.412
189.412
189.413
189.413
189.413
189.413
189.413
189.413
189.413
189.413
189.413
189.413
189.413
189.413
189.414
189.414
189.414
189.414
189.414
189.414
189.414
189.415
189.415
189.415
189.415
189.415
189.416
189.416
189.416
189.416
189.416
189.417
189.417
189.417
189.417
189.417
189.418
189.418
189.418
189.418
189.418
189.419
189.419
189.419
189.419
189.42
189.42
189.42
189.42
189.421
189.421
189.421
189.421
189.421
189.422
189.422
189.422
189.422
189.423
189.423
189.423
189.423
189.423
189.424
189.424
189.424
189.424
189.424
189.425
189.425
189.425
189.425
189.425
189.426
189.426
189.426
189.426
189.426
189.427
188.183
188.183
188.184
188.184
188.184
188.184
188.184
188.184
188.184
188.184
188.184
188.184
188.184
188.185
188.185
188.185
188.185
188.185
188.185
188.186
188.186
188.186
188.186
188.186
188.187
188.187
188.187
188.187
188.187
188.188
188.188
188.188
188.188
188.189
188.189
188.189
188.189
188.19
188.19
188.19
188.19
188.191
188.191
188.191
188.191
188.192
188.192
188.192
188.193
188.193
188.193
188.193
188.194
188.194
188.194
188.194
188.195
188.195
188.195
188.195
188.196
188.196
188.196
188.197
188.197
188.197
188.197
188.198
188.198
188.198
188.198
188.199
188.199
188.199
188.199
188.199
188.2
188.2
188.2
188.2
186.954
186.954
186.954
186.954
186.954
186.954
186.954
186.954
186.954
186.955
186.955
186.955
186.955
186.955
186.955
186.956
186.956
186.956
186.956
186.956
186.957
186.957
186.957
186.957
186.958
186.958
186.958
186.958
186.959
186.959
186.959
186.96
186.96
186.96
186.96
186.961
186.961
186.961
186.962
186.962
186.962
186.963
186.963
186.963
186.964
186.964
186.964
186.965
186.965
186.965
186.965
186.966
186.966
186.966
186.967
186.967
186.967
186.968
186.968
186.968
186.969
186.969
186.969
186.97
186.97
186.97
186.97
186.971
186.971
186.971
186.972
186.972
186.972
186.973
186.973
186.973
186.973
186.974
186.974
186.974
185.724
185.724
185.724
185.724
185.724
185.724
185.724
185.724
185.724
185.725
185.725
185.725
185.725
185.725
185.725
185.726
185.726
185.726
185.726
185.727
185.727
185.727
185.728
185.728
185.728
185.728
185.729
185.729
185.729
185.73
185.73
185.731
185.731
185.731
185.732
185.732
185.732
185.733
185.733
185.733
185.734
185.734
185.735
185.735
185.735
185.736
185.736
185.736
185.737
185.737
185.738
185.738
185.738
185.739
185.739
185.74
185.74
185.74
185.741
185.741
185.741
185.742
185.742
185.743
185.743
185.743
185.744
185.744
185.744
185.745
185.745
185.745
185.746
185.746
185.746
185.747
185.747
185.747
185.748
185.748
184.493
184.493
184.493
184.493
184.493
184.493
184.493
184.493
184.494
184.494
184.494
184.494
184.494
184.495
184.495
184.495
184.495
184.496
184.496
184.496
184.497
184.497
184.497
184.498
184.498
184.499
184.499
184.499
184.5
184.5
184.501
184.501
184.501
184.502
184.502
184.503
184.503
184.504
184.504
184.504
184.505
184.505
184.506
184.506
184.507
184.507
184.508
184.508
184.509
184.509
184.509
184.51
184.51
184.511
184.511
184.512
184.512
184.513
184.513
184.514
184.514
184.514
184.515
184.515
184.516
184.516
184.517
184.517
184.517
184.518
184.518
184.519
184.519
184.52
184.52
184.52
184.521
184.521
184.522
184.522
183.261
183.261
183.261
183.261
183.261
183.261
183.261
183.262
183.262
183.262
183.262
183.263
183.263
183.263
183.263
183.264
183.264
183.264
183.265
183.265
183.266
183.266
183.266
183.267
183.267
183.268
183.268
183.269
183.269
183.27
183.27
183.271
183.271
183.272
183.272
183.273
183.273
183.274
183.274
183.275
183.275
183.276
183.277
183.277
183.278
183.278
183.279
183.279
183.28
183.28
183.281
183.282
183.282
183.283
183.283
183.284
183.284
183.285
183.285
183.286
183.286
183.287
183.287
183.288
183.289
183.289
183.29
183.29
183.291
183.291
183.292
183.292
183.293
183.293
183.294
183.294
183.294
183.295
183.295
183.296
182.028
182.028
182.028
182.028
182.028
182.028
182.029
182.029
182.029
182.029
182.03
182.03
182.03
182.031
182.031
182.031
182.032
182.032
182.033
182.033
182.034
182.034
182.035
182.035
182.036
182.036
182.037
182.037
182.038
182.039
182.039
182.04
182.04
182.041
182.042
182.042
182.043
182.044
182.044
182.045
182.045
182.046
182.047
182.047
182.048
182.049
182.049
182.05
182.051
182.051
182.052
182.053
182.053
182.054
182.055
182.055
182.056
182.057
182.057
182.058
182.059
182.059
182.06
182.06
182.061
182.062
182.062
182.063
182.064
182.064
182.065
182.065
182.066
182.066
182.067
182.068
182.068
182.069
182.069
182.07
180.794
180.794
180.794
180.794
180.794
180.794
180.794
180.795
180.795
180.795
180.796
180.796
180.796
180.797
180.797
180.798
180.798
180.799
180.799
180.8
180.8
180.801
180.802
180.802
180.803
180.804
180.804
180.805
180.806
180.806
180.807
180.808
180.809
180.809
180.81
180.811
180.812
180.812
180.813
180.814
180.815
180.816
180.816
180.817
180.818
180.819
180.82
180.82
180.821
180.822
180.823
180.824
180.824
180.825
180.826
180.827
180.827
180.828
180.829
180.83
180.831
180.831
180.832
180.833
180.834
180.834
180.835
180.836
180.836
180.837
180.838
180.839
180.839
180.84
180.841
180.841
180.842
180.843
180.843
180.844
179.558
179.558
179.558
179.558
179.558
179.558
179.559
179.559
179.559
179.56
179.56
179.56
179.561
179.561
179.562
179.563
179.563
179.564
179.564
179.565
179.566
179.567
179.567
179.568
179.569
179.57
179.571
179.571
179.572
179.573
179.574
179.575
179.576
179.577
179.578
179.579
179.579
179.58
179.581
179.582
179.583
179.584
179.585
179.586
179.587
179.588
179.589
179.59
179.591
179.592
179.593
179.594
179.595
179.596
179.597
179.598
179.598
179.599
179.6
179.601
179.602
179.603
179.604
179.605
179.606
179.607
179.608
179.608
179.609
179.61
179.611
179.612
179.613
179.614
179.614
179.615
179.616
179.617
179.618
179.618
178.319
178.32
178.32
178.32
178.32
178.32
178.321
178.321
178.321
178.322
178.322
178.323
178.324
178.324
178.325
178.326
178.326
178.327
178.328
178.329
178.33
178.331
178.331
178.332
178.333
178.334
178.335
178.336
178.337
178.338
178.34
178.341
178.342
178.343
178.344
178.345
178.346
178.347
178.348
178.35
178.351
178.352
178.353
178.354
178.355
178.357
178.358
178.359
178.36
178.361
178.362
178.363
178.365
178.366
178.367
178.368
178.369
178.37
178.371
178.372
178.374
178.375
178.376
178.377
178.378
178.379
178.38
178.381
178.382
178.383
178.384
178.385
178.386
178.387
178.388
178.389
178.39
178.391
178.392
178.393
177.079
177.079
177.079
177.079
177.08
177.08
177.08
177.081
177.081
177.082
177.083
177.083
177.084
177.085
177.086
177.087
177.087
177.088
177.089
177.09
177.091
177.093
177.094
177.095
177.096
177.097
177.098
177.1
177.101
177.102
177.103
177.105
177.106
177.107
177.109
177.11
177.112
177.113
177.114
177.116
177.117
177.118
177.12
177.121
177.123
177.124
177.125
177.127
177.128
177.13
177.131
177.132
177.134
177.135
177.137
177.138
177.139
177.141
177.142
177.143
177.145
177.146
177.147
177.149
177.15
177.151
177.152
177.154
177.155
177.156
177.157
177.159
177.16
177.161
177.162
177.163
177.164
177.166
177.167
177.168
175.835
175.836
175.836
175.836
175.836
175.837
175.837
175.838
175.838
175.839
175.84
175.841
175.842
175.843
175.844
175.845
175.846
175.847
175.848
175.849
175.851
175.852
175.853
175.855
175.856
175.858
175.859
175.861
175.862
175.864
175.865
175.867
175.869
175.87
175.872
175.874
175.875
175.877
175.879
175.88
175.882
175.884
175.885
175.887
175.889
175.891
175.892
175.894
175.896
175.897
175.899
175.901
175.902
175.904
175.906
175.907
175.909
175.911
175.912
175.914
175.916
175.917
175.919
175.92
175.922
175.923
175.925
175.926
175.928
175.929
175.931
175.932
175.934
175.935
175.936
175.938
175.939
175.941
175.942
175.943
174.588
174.588
174.589
174.589
174.589
174.59
174.59
174.591
174.592
174.593
174.594
174.595
174.596
174.597
174.598
174.6
174.601
174.602
174.604
174.605
174.607
174.609
174.61
174.612
174.614
174.616
174.618
174.619
174.621
174.623
174.625
174.627
174.629
174.631
174.633
174.635
174.637
174.639
174.641
174.643
174.646
174.648
174.65
174.652
174.654
174.656
174.658
174.66
174.662
174.664
174.666
174.668
174.67
174.672
174.674
174.676
174.678
174.68
174.682
174.684
174.686
174.688
174.69
174.692
174.694
174.696
174.697
174.699
174.701
174.703
174.704
174.706
174.708
174.71
174.711
174.713
174.715
174.716
174.718
174.719
173.336
173.336
173.337
173.337
173.338
173.338
173.339
173.34
173.341
173.342
173.343
173.345
173.346
173.347
173.349
173.351
173.352
173.354
173.356
173.358
173.36
173.362
173.364
173.366
173.368
173.37
173.373
173.375
173.377
173.38
173.382
173.385
173.387
173.39
173.392
173.395
173.397
173.4
173.402
173.405
173.407
173.41
173.412
173.415
173.417
173.42
173.422
173.425
173.428
173.43
173.433
173.435
173.437
173.44
173.442
173.445
173.447
173.45
173.452
173.454
173.457
173.459
173.461
173.463
173.466
173.468
173.47
173.472
173.474
173.477
173.479
173.481
173.483
173.485
173.487
173.489
173.491
173.493
173.495
173.496
172.079
172.079
172.079
172.08
172.08
172.081
172.082
172.083
172.085
172.086
172.087
172.089
172.091
172.093
172.094
172.097
172.099
172.101
172.103
172.106
172.108
172.111
172.113
172.116
172.119
172.121
172.124
172.127
172.13
172.133
172.136
172.139
172.142
172.145
172.148
172.151
172.154
172.157
172.161
172.164
172.167
172.17
172.173
172.176
172.179
172.182
172.186
172.189
172.192
172.195
172.198
172.201
172.204
172.207
172.21
172.213
172.216
172.219
172.222
172.224
172.227
172.23
172.233
172.236
172.238
172.241
172.244
172.246
172.249
172.251
172.254
172.256
172.259
172.261
172.264
172.266
172.268
172.271
172.273
172.275
170.814
170.814
170.815
170.815
170.816
170.817
170.818
170.82
170.821
170.823
170.825
170.827
170.829
170.831
170.834
170.836
170.839
170.842
170.845
170.848
170.851
170.854
170.857
170.861
170.864
170.867
170.871
170.875
170.878
170.882
170.886
170.889
170.893
170.897
170.901
170.905
170.909
170.912
170.916
170.92
170.924
170.928
170.932
170.936
170.94
170.943
170.947
170.951
170.955
170.959
170.962
170.966
170.97
170.973
170.977
170.981
170.984
170.988
170.991
170.995
170.998
171.002
171.005
171.008
171.012
171.015
171.018
171.021
171.024
171.027
171.03
171.033
171.036
171.039
171.042
171.045
171.048
171.05
171.053
171.056
169.54
169.541
169.541
169.542
169.543
169.544
169.546
169.547
169.549
169.552
169.554
169.557
169.559
169.562
169.565
169.569
169.572
169.575
169.579
169.583
169.587
169.591
169.595
169.599
169.603
169.608
169.612
169.617
169.621
169.626
169.631
169.635
169.64
169.645
169.65
169.654
169.659
169.664
169.669
169.674
169.679
169.683
169.688
169.693
169.698
169.703
169.707
169.712
169.717
169.721
169.726
169.731
169.735
169.74
169.744
169.749
169.753
169.757
169.762
169.766
169.77
169.774
169.778
169.782
169.786
169.79
169.794
169.798
169.802
169.805
169.809
169.813
169.816
169.82
169.823
169.826
169.83
169.833
169.836
169.839
168.255
168.255
168.256
168.257
168.258
168.26
168.262
168.264
168.267
168.27
168.273
168.276
168.279
168.283
168.287
168.291
168.295
168.3
168.305
168.309
168.314
168.319
168.325
168.33
168.335
168.341
168.347
168.352
168.358
168.364
168.37
168.376
168.382
168.388
168.394
168.4
168.406
168.412
168.418
168.424
168.43
168.436
168.442
168.448
168.454
168.46
168.466
168.472
168.478
168.484
168.489
168.495
168.501
168.506
168.512
168.517
168.522
168.528
168.533
168.538
168.543
168.548
168.553
168.558
168.563
168.568
168.573
168.577
168.582
168.586
168.591
168.595
168.599
168.604
168.608
168.612
168.616
168.62
168.624
168.627
166.955
166.956
166.956
166.958
166.959
166.962
166.964
166.967
166.97
166.974
166.978
166.982
166.986
166.991
166.996
167.002
167.007
167.013
167.019
167.025
167.031
167.038
167.045
167.051
167.058
167.065
167.073
167.08
167.087
167.095
167.102
167.11
167.117
167.125
167.133
167.14
167.148
167.156
167.163
167.171
167.179
167.186
167.194
167.201
167.209
167.216
167.224
167.231
167.238
167.245
167.253
167.26
167.267
167.274
167.28
167.287
167.294
167.3
167.307
167.313
167.32
167.326
167.332
167.338
167.344
167.35
167.355
167.361
167.367
167.372
167.377
167.383
167.388
167.393
167.398
167.403
167.408
167.412
167.417
167.421
165.636
165.637
165.638
165.64
165.642
165.645
165.648
165.652
165.656
165.661
165.666
165.671
165.677
165.683
165.69
165.696
165.704
165.711
165.719
165.727
165.735
165.743
165.752
165.761
165.77
165.779
165.788
165.797
165.807
165.816
165.826
165.836
165.845
165.855
165.865
165.875
165.885
165.894
165.904
165.914
165.924
165.933
165.943
165.952
165.962
165.971
165.981
165.99
165.999
166.008
166.017
166.026
166.035
166.043
166.052
166.06
166.068
166.077
166.085
166.093
166.1
166.108
166.116
166.123
166.13
166.137
166.144
166.151
166.158
166.165
166.171
166.178
166.184
166.19
166.196
166.202
166.207
166.213
166.218
166.224
164.293
164.294
164.295
164.298
164.3
164.304
164.308
164.313
164.319
164.325
164.331
164.338
164.346
164.354
164.363
164.372
164.381
164.391
164.401
164.411
164.422
164.433
164.444
164.455
164.467
164.479
164.491
164.503
164.515
164.527
164.54
164.552
164.565
164.577
164.59
164.602
164.615
164.628
164.64
164.653
164.665
164.677
164.69
164.702
164.714
164.726
164.738
164.75
164.761
164.773
164.784
164.795
164.806
164.817
164.828
164.838
164.849
164.859
164.869
164.879
164.888
164.898
164.907
164.916
164.925
164.934
164.943
164.951
164.959
164.967
164.975
164.983
164.991
164.998
165.005
165.012
165.019
165.026
165.032
165.039
162.918
162.919
162.921
162.924
162.928
162.932
162.938
162.944
162.952
162.959
162.968
162.977
162.987
162.998
163.009
163.021
163.033
163.046
163.059
163.073
163.087
163.101
163.116
163.13
163.146
163.161
163.177
163.193
163.208
163.225
163.241
163.257
163.273
163.29
163.306
163.322
163.339
163.355
163.371
163.387
163.403
163.419
163.435
163.451
163.466
163.482
163.497
163.512
163.527
163.541
163.556
163.57
163.584
163.598
163.611
163.625
163.638
163.651
163.663
163.676
163.688
163.7
163.711
163.722
163.734
163.744
163.755
163.765
163.775
163.785
163.795
163.804
163.813
163.822
163.831
163.839
163.848
163.856
163.863
163.871
161.501
161.502
161.505
161.508
161.514
161.52
161.527
161.536
161.545
161.556
161.567
161.579
161.593
161.607
161.621
161.637
161.653
161.67
161.687
161.705
161.723
161.742
161.762
161.781
161.801
161.822
161.842
161.863
161.884
161.905
161.926
161.948
161.969
161.991
162.012
162.033
162.055
162.076
162.097
162.118
162.139
162.16
162.18
162.201
162.221
162.241
162.261
162.28
162.299
162.318
162.336
162.355
162.373
162.39
162.407
162.424
162.441
162.457
162.473
162.489
162.504
162.519
162.533
162.548
162.561
162.575
162.588
162.601
162.613
162.625
162.637
162.649
162.66
162.67
162.681
162.691
162.701
162.71
162.719
162.728
160.028
160.03
160.033
160.038
160.045
160.053
160.063
160.074
160.087
160.101
160.116
160.132
160.15
160.168
160.188
160.208
160.23
160.252
160.275
160.299
160.323
160.348
160.374
160.4
160.427
160.454
160.481
160.508
160.536
160.564
160.592
160.621
160.649
160.677
160.706
160.734
160.762
160.79
160.818
160.846
160.873
160.901
160.928
160.954
160.981
161.007
161.033
161.058
161.083
161.107
161.131
161.155
161.178
161.201
161.223
161.245
161.266
161.287
161.307
161.327
161.347
161.365
161.384
161.402
161.419
161.436
161.452
161.468
161.483
161.498
161.513
161.527
161.54
161.553
161.566
161.578
161.589
161.601
161.612
161.622
158.482
158.484
158.489
158.496
158.505
158.515
158.528
158.543
158.56
158.578
158.599
158.62
158.643
158.668
158.694
158.721
158.75
158.78
158.81
158.842
158.874
158.908
158.942
158.977
159.012
159.048
159.084
159.121
159.158
159.196
159.233
159.271
159.309
159.347
159.385
159.422
159.46
159.497
159.534
159.571
159.608
159.644
159.68
159.716
159.751
159.785
159.819
159.852
159.885
159.917
159.949
159.98
160.01
160.04
160.069
160.098
160.125
160.152
160.178
160.204
160.229
160.253
160.276
160.299
160.321
160.342
160.362
160.382
160.401
160.42
160.437
160.454
160.471
160.487
160.502
160.516
160.53
160.543
160.556
160.568
156.838
156.841
156.847
156.856
156.868
156.883
156.9
156.92
156.942
156.966
156.993
157.021
157.052
157.085
157.12
157.156
157.194
157.233
157.274
157.316
157.36
157.404
157.45
157.497
157.544
157.592
157.641
157.69
157.74
157.79
157.841
157.892
157.943
157.994
158.044