/*--------------------------------*- C++ -*----------------------------------*\
  =========                 |
  \\      /  F ield         | OpenFOAM: The Open Source CFD Toolbox
   \\    /   O peration     | Website:  https://openfoam.org
    \\  /    A nd           | Version:  8
     \\/     M anipulation  |
\*---------------------------------------------------------------------------*/
FoamFile
{
    version     2.0;
    format      ascii;
    class       surfaceScalarField;
    location    "1000";
    object      phi;
}
// * * * * * * * * * * * * * * * * * * * * * * * * * * * * * * * * * * * * * //

dimensions      [0 3 -1 0 0 0 0];

internalField   nonuniform List<scalar> 
25360
(
-3.92048e-11
3.92048e-11
-7.80384e-11
3.88336e-11
-1.16477e-10
3.84382e-11
-1.54497e-10
3.80201e-11
-1.92077e-10
3.75806e-11
-2.29198e-10
3.71212e-11
-2.65841e-10
3.66431e-11
-3.01989e-10
3.61478e-11
-3.37626e-10
3.56364e-11
-3.72736e-10
3.51102e-11
-4.07306e-10
3.45704e-11
-4.41325e-10
3.40182e-11
-4.74779e-10
3.34546e-11
-5.0766e-10
3.28807e-11
-5.39957e-10
3.22975e-11
-5.71663e-10
3.17061e-11
-6.02771e-10
3.11074e-11
-6.33273e-10
3.05024e-11
-6.63165e-10
2.98918e-11
-6.92442e-10
2.92767e-11
-7.21099e-10
2.86577e-11
-7.49135e-10
2.80357e-11
-7.76547e-10
2.74114e-11
-8.03332e-10
2.67855e-11
-8.29491e-10
2.61587e-11
-8.55022e-10
2.55317e-11
-8.79928e-10
2.49051e-11
-9.04207e-10
2.42794e-11
-9.27862e-10
2.36552e-11
-9.50895e-10
2.30331e-11
-9.73309e-10
2.24135e-11
-9.95105e-10
2.17969e-11
-1.01629e-09
2.11838e-11
-1.03686e-09
2.05745e-11
-1.05683e-09
1.99696e-11
-1.0762e-09
1.93693e-11
-1.09498e-09
1.8774e-11
-1.11316e-09
1.8184e-11
-1.13076e-09
1.75996e-11
-1.14778e-09
1.70212e-11
-1.16423e-09
1.64489e-11
-1.18011e-09
1.58831e-11
-1.19544e-09
1.53239e-11
-1.21021e-09
1.47715e-11
-1.22444e-09
1.42262e-11
-1.23812e-09
1.36881e-11
-1.25128e-09
1.31574e-11
-1.26391e-09
1.26342e-11
-1.27603e-09
1.21186e-11
-1.28764e-09
1.16108e-11
-1.29876e-09
1.11109e-11
-1.30937e-09
1.06188e-11
-1.31951e-09
1.01348e-11
-1.32917e-09
9.65885e-12
-1.33836e-09
9.19103e-12
-1.34709e-09
8.73138e-12
-1.35537e-09
8.27992e-12
-1.36321e-09
7.83669e-12
-1.37061e-09
7.40168e-12
-1.37758e-09
6.97492e-12
-1.38414e-09
6.55638e-12
-1.39029e-09
6.14606e-12
-1.39603e-09
5.74394e-12
-1.40138e-09
5.34999e-12
-1.40634e-09
4.96419e-12
-1.41093e-09
4.58648e-12
-1.41515e-09
4.21683e-12
-1.419e-09
3.85519e-12
-1.4225e-09
3.5015e-12
-1.42566e-09
3.15571e-12
-1.42848e-09
2.81774e-12
-1.43096e-09
2.48753e-12
-1.43313e-09
2.16502e-12
-1.43498e-09
1.85011e-12
-1.43652e-09
1.54274e-12
-1.43777e-09
1.24283e-12
-1.43872e-09
9.50281e-13
-1.43938e-09
6.65018e-13
-1.43977e-09
3.86949e-13
1.15982e-13
-1.43988e-09
-4.0417e-11
7.96219e-11
-8.04514e-11
7.8868e-11
-1.20078e-10
7.8065e-11
-1.59274e-10
7.72157e-11
-1.98016e-10
7.63231e-11
-2.36285e-10
7.53901e-11
-2.74061e-10
7.44192e-11
-3.11327e-10
7.34132e-11
-3.48065e-10
7.23746e-11
-3.84261e-10
7.13059e-11
-4.199e-10
7.02096e-11
-4.54969e-10
6.90879e-11
-4.89458e-10
6.79432e-11
-5.23355e-10
6.67776e-11
-5.56651e-10
6.55932e-11
-5.89336e-10
6.43921e-11
-6.21405e-10
6.31761e-11
-6.5285e-10
6.19472e-11
-6.83665e-10
6.07072e-11
-7.13846e-10
5.94578e-11
-7.43389e-10
5.82006e-11
-7.72291e-10
5.69373e-11
-8.00549e-10
5.56693e-11
-8.28161e-10
5.43981e-11
-8.55128e-10
5.31251e-11
-8.81448e-10
5.18516e-11
-9.07122e-10
5.05789e-11
-9.3215e-10
4.93081e-11
-9.56536e-10
4.80404e-11
-9.80279e-10
4.67768e-11
-1.00338e-09
4.55184e-11
-1.02585e-09
4.42661e-11
-1.04769e-09
4.30209e-11
-1.0689e-09
4.17835e-11
-1.08949e-09
4.05549e-11
-1.10945e-09
3.93357e-11
-1.1288e-09
3.81266e-11
-1.14755e-09
3.69284e-11
-1.16569e-09
3.57416e-11
-1.18324e-09
3.45668e-11
-1.20019e-09
3.34045e-11
-1.21656e-09
3.22553e-11
-1.23236e-09
3.11196e-11
-1.24759e-09
2.99978e-11
-1.26225e-09
2.88903e-11
-1.27636e-09
2.77974e-11
-1.28992e-09
2.67196e-11
-1.30294e-09
2.5657e-11
-1.31544e-09
2.46099e-11
-1.3274e-09
2.35785e-11
-1.33886e-09
2.25631e-11
-1.3498e-09
2.15638e-11
-1.36025e-09
2.05808e-11
-1.3702e-09
1.96142e-11
-1.37967e-09
1.86641e-11
-1.38867e-09
1.77306e-11
-1.39721e-09
1.68137e-11
-1.40528e-09
1.59136e-11
-1.41291e-09
1.50301e-11
-1.4201e-09
1.41634e-11
-1.42686e-09
1.33134e-11
-1.43319e-09
1.24801e-11
-1.43911e-09
1.16634e-11
-1.44463e-09
1.08634e-11
-1.44974e-09
1.00798e-11
-1.45447e-09
9.31276e-12
-1.45881e-09
8.56206e-12
-1.46278e-09
7.82762e-12
-1.46639e-09
7.10933e-12
-1.46964e-09
6.40707e-12
-1.47255e-09
5.72072e-12
-1.47511e-09
5.05012e-12
-1.47734e-09
4.39514e-12
-1.47925e-09
3.75563e-12
-1.48083e-09
3.13142e-12
-1.48211e-09
2.52235e-12
-1.48309e-09
1.92824e-12
-1.48378e-09
1.34893e-12
-1.48417e-09
7.84228e-13
2.33952e-13
-1.48429e-09
-4.28794e-11
1.22501e-10
-8.53528e-11
1.21341e-10
-1.27394e-10
1.20106e-10
-1.68977e-10
1.18799e-10
-2.1008e-10
1.17426e-10
-2.5068e-10
1.1599e-10
-2.90757e-10
1.14496e-10
-3.30293e-10
1.12948e-10
-3.69269e-10
1.1135e-10
-4.07669e-10
1.09706e-10
-4.45479e-10
1.08019e-10
-4.82684e-10
1.06293e-10
-5.19273e-10
1.04532e-10
-5.55234e-10
1.02739e-10
-5.90557e-10
1.00916e-10
-6.25233e-10
9.9068e-11
-6.59254e-10
9.71971e-11
-6.92613e-10
9.53062e-11
-7.25304e-10
9.33982e-11
-7.57322e-10
9.14758e-11
-7.88663e-10
8.95414e-11
-8.19323e-10
8.75976e-11
-8.493e-10
8.56466e-11
-8.78593e-10
8.36906e-11
-9.072e-10
8.17319e-11
-9.3512e-10
7.97724e-11
-9.62356e-10
7.78141e-11
-9.88906e-10
7.58588e-11
-1.01477e-09
7.39082e-11
-1.03996e-09
7.1964e-11
-1.06447e-09
7.00278e-11
-1.08831e-09
6.81009e-11
-1.11147e-09
6.6185e-11
-1.13397e-09
6.42811e-11
-1.1558e-09
6.23906e-11
-1.17698e-09
6.05147e-11
-1.19751e-09
5.86544e-11
-1.21739e-09
5.68108e-11
-1.23664e-09
5.49847e-11
-1.25525e-09
5.31772e-11
-1.27323e-09
5.13889e-11
-1.2906e-09
4.96207e-11
-1.30735e-09
4.78733e-11
-1.3235e-09
4.61473e-11
-1.33905e-09
4.44434e-11
-1.35402e-09
4.27619e-11
-1.3684e-09
4.11035e-11
-1.38221e-09
3.94686e-11
-1.39546e-09
3.78576e-11
-1.40815e-09
3.62708e-11
-1.4203e-09
3.47085e-11
-1.4319e-09
3.31711e-11
-1.44298e-09
3.16587e-11
-1.45354e-09
3.01715e-11
-1.46359e-09
2.87098e-11
-1.47313e-09
2.72735e-11
-1.48218e-09
2.58629e-11
-1.49074e-09
2.4478e-11
-1.49883e-09
2.31188e-11
-1.50645e-09
2.17853e-11
-1.51362e-09
2.04776e-11
-1.52033e-09
1.91956e-11
-1.52661e-09
1.79392e-11
-1.53245e-09
1.67083e-11
-1.53788e-09
1.55029e-11
-1.54289e-09
1.43228e-11
-1.54749e-09
1.31678e-11
-1.5517e-09
1.20379e-11
-1.55553e-09
1.09329e-11
-1.55897e-09
9.85251e-12
-1.56205e-09
8.7966e-12
-1.56476e-09
7.76493e-12
-1.56712e-09
6.7573e-12
-1.56914e-09
5.77347e-12
-1.57082e-09
4.81318e-12
-1.57218e-09
3.87618e-12
-1.57321e-09
2.96221e-12
-1.57393e-09
2.07101e-12
-1.57435e-09
1.20228e-12
3.55749e-13
-1.57447e-09
-4.66686e-11
1.6917e-10
-9.28954e-11
1.67568e-10
-1.38651e-10
1.65862e-10
-1.83909e-10
1.64057e-10
-2.28644e-10
1.62161e-10
-2.72832e-10
1.60178e-10
-3.1645e-10
1.58115e-10
-3.59478e-10
1.55977e-10
-4.01898e-10
1.5377e-10
-4.4369e-10
1.51499e-10
-4.8484e-10
1.49169e-10
-5.25332e-10
1.46785e-10
-5.65153e-10
1.44353e-10
-6.0429e-10
1.41876e-10
-6.42733e-10
1.39359e-10
-6.80471e-10
1.36806e-10
-7.17496e-10
1.34222e-10
-7.538e-10
1.31611e-10
-7.89378e-10
1.28975e-10
-8.24222e-10
1.2632e-10
-8.58329e-10
1.23649e-10
-8.91696e-10
1.20964e-10
-9.24318e-10
1.18269e-10
-9.56195e-10
1.15568e-10
-9.87326e-10
1.12863e-10
-1.01771e-09
1.10156e-10
-1.04735e-09
1.07452e-10
-1.07624e-09
1.04751e-10
-1.10439e-09
1.02057e-10
-1.1318e-09
9.93719e-11
-1.15847e-09
9.66977e-11
-1.1844e-09
9.40366e-11
-1.20961e-09
9.13904e-11
-1.23409e-09
8.8761e-11
-1.25785e-09
8.61501e-11
-1.28089e-09
8.35593e-11
-1.30323e-09
8.09901e-11
-1.32486e-09
7.84439e-11
-1.3458e-09
7.5922e-11
-1.36605e-09
7.34256e-11
-1.38561e-09
7.09559e-11
-1.40451e-09
6.8514e-11
-1.42273e-09
6.61007e-11
-1.4403e-09
6.37171e-11
-1.45722e-09
6.13638e-11
-1.4735e-09
5.90417e-11
-1.48915e-09
5.67515e-11
-1.50418e-09
5.44937e-11
-1.51859e-09
5.22688e-11
-1.53239e-09
5.00775e-11
-1.54561e-09
4.792e-11
-1.55823e-09
4.57968e-11
-1.57028e-09
4.37082e-11
-1.58176e-09
4.16545e-11
-1.59269e-09
3.96359e-11
-1.60307e-09
3.76525e-11
-1.61291e-09
3.57045e-11
-1.62222e-09
3.3792e-11
-1.63102e-09
3.19151e-11
-1.63931e-09
3.00737e-11
-1.6471e-09
2.82679e-11
-1.6544e-09
2.64975e-11
-1.66123e-09
2.47625e-11
-1.66758e-09
2.30628e-11
-1.67347e-09
2.13983e-11
-1.67892e-09
1.97687e-11
-1.68393e-09
1.81739e-11
-1.6885e-09
1.66137e-11
-1.69266e-09
1.50878e-11
-1.6964e-09
1.3596e-11
-1.69974e-09
1.21379e-11
-1.70269e-09
1.07134e-11
-1.70526e-09
9.32204e-12
-1.70745e-09
7.96356e-12
-1.70927e-09
6.6376e-12
-1.71074e-09
5.34381e-12
-1.71186e-09
4.08182e-12
-1.71264e-09
2.85127e-12
-1.71309e-09
1.65177e-12
4.82926e-13
-1.71321e-09
-5.19029e-11
2.21073e-10
-1.03314e-10
2.18979e-10
-1.54202e-10
2.1675e-10
-2.04536e-10
2.14391e-10
-2.54288e-10
2.11912e-10
-3.03431e-10
2.09321e-10
-3.51941e-10
2.06625e-10
-3.99794e-10
2.0383e-10
-4.4697e-10
2.00946e-10
-4.93449e-10
1.97978e-10
-5.39213e-10
1.94933e-10
-5.84244e-10
1.91817e-10
-6.28529e-10
1.88638e-10
-6.72053e-10
1.854e-10
-7.14805e-10
1.8211e-10
-7.56773e-10
1.78774e-10
-7.97947e-10
1.75397e-10
-8.3832e-10
1.71983e-10
-8.77883e-10
1.68539e-10
-9.16632e-10
1.65068e-10
-9.54559e-10
1.61577e-10
-9.91663e-10
1.58067e-10
-1.02794e-09
1.54546e-10
-1.06339e-09
1.51015e-10
-1.098e-09
1.47479e-10
-1.13179e-09
1.43942e-10
-1.16474e-09
1.40407e-10
-1.19687e-09
1.36877e-10
-1.22817e-09
1.33356e-10
-1.25864e-09
1.29846e-10
-1.2883e-09
1.26351e-10
-1.31713e-09
1.22873e-10
-1.34516e-09
1.19415e-10
-1.37237e-09
1.15978e-10
-1.39879e-09
1.12566e-10
-1.42441e-09
1.0918e-10
-1.44924e-09
1.05822e-10
-1.47329e-09
1.02494e-10
-1.49657e-09
9.91981e-11
-1.51908e-09
9.59355e-11
-1.54083e-09
9.27078e-11
-1.56183e-09
8.95164e-11
-1.58209e-09
8.63625e-11
-1.60162e-09
8.32473e-11
-1.62043e-09
8.01719e-11
-1.63853e-09
7.71372e-11
-1.65592e-09
7.41441e-11
-1.67262e-09
7.11934e-11
-1.68864e-09
6.82859e-11
-1.70398e-09
6.54221e-11
-1.71866e-09
6.26026e-11
-1.7327e-09
5.9828e-11
-1.74609e-09
5.70986e-11
-1.75885e-09
5.44148e-11
-1.77099e-09
5.17768e-11
-1.78252e-09
4.9185e-11
-1.79345e-09
4.66394e-11
-1.8038e-09
4.41402e-11
-1.81358e-09
4.16875e-11
-1.82278e-09
3.92813e-11
-1.83144e-09
3.69215e-11
-1.83955e-09
3.46081e-11
-1.84713e-09
3.2341e-11
-1.85418e-09
3.012e-11
-1.86073e-09
2.79449e-11
-1.86678e-09
2.58156e-11
-1.87233e-09
2.37317e-11
-1.87741e-09
2.1693e-11
-1.88202e-09
1.96992e-11
-1.88618e-09
1.77499e-11
-1.88989e-09
1.58447e-11
-1.89316e-09
1.39834e-11
-1.896e-09
1.21655e-11
-1.89843e-09
1.03905e-11
-1.90045e-09
8.65796e-12
-1.90207e-09
6.96752e-12
-1.90331e-09
5.31865e-12
-1.90417e-09
3.71086e-12
-1.90466e-09
2.14365e-12
6.16514e-13
-1.90479e-09
-5.87457e-11
2.79818e-10
-1.16935e-10
2.77169e-10
-1.74532e-10
2.74346e-10
-2.31501e-10
2.71361e-10
-2.87812e-10
2.68223e-10
-3.43433e-10
2.64943e-10
-3.98338e-10
2.61529e-10
-4.52499e-10
2.57992e-10
-5.05893e-10
2.5434e-10
-5.58498e-10
2.50582e-10
-6.10293e-10
2.46727e-10
-6.61259e-10
2.42783e-10
-7.1138e-10
2.38758e-10
-7.60639e-10
2.34659e-10
-8.09023e-10
2.30494e-10
-8.5652e-10
2.26271e-10
-9.03118e-10
2.21995e-10
-9.48808e-10
2.17673e-10
-9.93582e-10
2.13313e-10
-1.03743e-09
2.08919e-10
-1.08035e-09
2.04498e-10
-1.12234e-09
2.00056e-10
-1.16339e-09
1.95597e-10
-1.20351e-09
1.91127e-10
-1.24268e-09
1.86651e-10
-1.28091e-09
1.82173e-10
-1.3182e-09
1.77697e-10
-1.35455e-09
1.73229e-10
-1.38997e-09
1.68771e-10
-1.42445e-09
1.64328e-10
-1.458e-09
1.59904e-10
-1.49063e-09
1.55501e-10
-1.52234e-09
1.51122e-10
-1.55313e-09
1.46772e-10
-1.58302e-09
1.42452e-10
-1.612e-09
1.38165e-10
-1.6401e-09
1.33915e-10
-1.6673e-09
1.29702e-10
-1.69364e-09
1.2553e-10
-1.7191e-09
1.214e-10
-1.74371e-09
1.17314e-10
-1.76746e-09
1.13274e-10
-1.79038e-09
1.09282e-10
-1.81247e-09
1.05338e-10
-1.83375e-09
1.01445e-10
-1.85421e-09
9.76038e-11
-1.87388e-09
9.38151e-11
-1.89277e-09
9.00801e-11
-1.91088e-09
8.63998e-11
-1.92824e-09
8.27749e-11
-1.94484e-09
7.92061e-11
-1.96071e-09
7.56941e-11
-1.97585e-09
7.22394e-11
-1.99028e-09
6.88424e-11
-2.004e-09
6.55035e-11
-2.01704e-09
6.2223e-11
-2.0294e-09
5.90011e-11
-2.0411e-09
5.58379e-11
-2.05215e-09
5.27336e-11
-2.06255e-09
4.96881e-11
-2.07233e-09
4.67015e-11
-2.0815e-09
4.37735e-11
-2.09006e-09
4.09042e-11
-2.09803e-09
3.80933e-11
-2.10543e-09
3.53406e-11
-2.11226e-09
3.26457e-11
-2.11854e-09
3.00084e-11
-2.12427e-09
2.74284e-11
-2.12948e-09
2.49051e-11
-2.13417e-09
2.24382e-11
-2.13835e-09
2.00272e-11
-2.14204e-09
1.76717e-11
-2.14524e-09
1.53711e-11
-2.14798e-09
1.31249e-11
-2.15025e-09
1.09325e-11
-2.15208e-09
8.79333e-12
-2.15347e-09
6.70679e-12
-2.15443e-09
4.67226e-12
-2.15497e-09
2.68911e-12
7.56676e-13
-2.15511e-09
-6.74113e-11
3.4723e-10
-1.34184e-10
3.43942e-10
-2.00277e-10
3.40439e-10
-2.65649e-10
3.36734e-10
-3.30266e-10
3.32839e-10
-3.94091e-10
3.28768e-10
-4.57093e-10
3.24531e-10
-5.19242e-10
3.20141e-10
-5.80511e-10
3.15608e-10
-6.40873e-10
3.10944e-10
-7.00305e-10
3.06159e-10
-7.58785e-10
3.01264e-10
-8.16295e-10
2.96268e-10
-8.72815e-10
2.9118e-10
-9.28331e-10
2.8601e-10
-9.82828e-10
2.80768e-10
-1.03629e-09
2.7546e-10
-1.08872e-09
2.70096e-10
-1.14009e-09
2.64684e-10
-1.1904e-09
2.5923e-10
-1.23964e-09
2.53743e-10
-1.28782e-09
2.48228e-10
-1.33491e-09
2.42694e-10
-1.38093e-09
2.37146e-10
-1.42587e-09
2.31589e-10
-1.46973e-09
2.26031e-10
-1.51251e-09
2.20476e-10
-1.55421e-09
2.1493e-10
-1.59483e-09
2.09397e-10
-1.63439e-09
2.03882e-10
-1.67287e-09
1.98391e-10
-1.7103e-09
1.92925e-10
-1.74667e-09
1.87491e-10
-1.78199e-09
1.82092e-10
-1.81627e-09
1.7673e-10
-1.84951e-09
1.7141e-10
-1.88173e-09
1.66134e-10
-1.91293e-09
1.60906e-10
-1.94313e-09
1.55727e-10
-1.97233e-09
1.50601e-10
-2.00055e-09
1.45531e-10
-2.02779e-09
1.40517e-10
-2.05407e-09
1.35562e-10
-2.0794e-09
1.30668e-10
-2.10379e-09
1.25837e-10
-2.12726e-09
1.21069e-10
-2.14981e-09
1.16368e-10
-2.17146e-09
1.11733e-10
-2.19223e-09
1.07165e-10
-2.21212e-09
1.02667e-10
-2.23115e-09
9.82383e-11
-2.24934e-09
9.38801e-11
-2.26669e-09
8.9593e-11
-2.28323e-09
8.53776e-11
-2.29896e-09
8.12344e-11
-2.3139e-09
7.71637e-11
-2.32806e-09
7.31657e-11
-2.34147e-09
6.92407e-11
-2.35412e-09
6.53887e-11
-2.36604e-09
6.16098e-11
-2.37725e-09
5.7904e-11
-2.38774e-09
5.42711e-11
-2.39755e-09
5.07109e-11
-2.40668e-09
4.72232e-11
-2.41515e-09
4.38078e-11
-2.42297e-09
4.04642e-11
-2.43015e-09
3.71921e-11
-2.43671e-09
3.3991e-11
-2.44267e-09
3.08604e-11
-2.44803e-09
2.77998e-11
-2.45281e-09
2.48087e-11
-2.45703e-09
2.18864e-11
-2.46069e-09
1.90322e-11
-2.46381e-09
1.62455e-11
-2.4664e-09
1.35257e-11
-2.46848e-09
1.08719e-11
-2.47006e-09
8.28347e-12
-2.47114e-09
5.75957e-12
-2.47175e-09
3.29944e-12
9.02262e-13
-2.4719e-09
-7.81712e-11
4.25401e-10
-1.55602e-10
4.21372e-10
-2.32244e-10
4.1708e-10
-3.08051e-10
4.12541e-10
-3.8298e-10
4.07769e-10
-4.56991e-10
4.02779e-10
-5.30048e-10
3.97588e-10
-6.02115e-10
3.92208e-10
-6.7316e-10
3.86653e-10
-7.43153e-10
3.80938e-10
-8.12067e-10
3.75074e-10
-8.79877e-10
3.69074e-10
-9.46561e-10
3.62951e-10
-1.0121e-09
3.56716e-10
-1.07647e-09
3.5038e-10
-1.13965e-09
3.43955e-10
-1.20164e-09
3.37451e-10
-1.26243e-09
3.30877e-10
-1.32199e-09
3.24243e-10
-1.38031e-09
3.1756e-10
-1.43741e-09
3.10835e-10
-1.49326e-09
3.04077e-10
-1.54786e-09
2.97294e-10
-1.6012e-09
2.90495e-10
-1.6533e-09
2.83685e-10
-1.70414e-09
2.76873e-10
-1.75373e-09
2.70066e-10
-1.80207e-09
2.63269e-10
-1.84916e-09
2.56488e-10
-1.89501e-09
2.4973e-10
-1.93962e-09
2.43e-10
-1.983e-09
2.36303e-10
-2.02515e-09
2.29643e-10
-2.06608e-09
2.23027e-10
-2.10581e-09
2.16456e-10
-2.14434e-09
2.09937e-10
-2.18168e-09
2.03472e-10
-2.21784e-09
1.97065e-10
-2.25283e-09
1.9072e-10
-2.28667e-09
1.84439e-10
-2.31936e-09
1.78225e-10
-2.35092e-09
1.72082e-10
-2.38137e-09
1.6601e-10
-2.41072e-09
1.60014e-10
-2.43898e-09
1.54094e-10
-2.46616e-09
1.48253e-10
-2.49228e-09
1.42492e-10
-2.51737e-09
1.36813e-10
-2.54142e-09
1.31217e-10
-2.56446e-09
1.25706e-10
-2.5865e-09
1.2028e-10
-2.60756e-09
1.1494e-10
-2.62765e-09
1.09688e-10
-2.6468e-09
1.04524e-10
-2.66501e-09
9.94478e-11
-2.68231e-09
9.44608e-11
-2.69871e-09
8.9563e-11
-2.71422e-09
8.47546e-11
-2.72887e-09
8.00358e-11
-2.74266e-09
7.54066e-11
-2.75563e-09
7.08669e-11
-2.76777e-09
6.64167e-11
-2.77912e-09
6.20556e-11
-2.78968e-09
5.77834e-11
-2.79947e-09
5.35997e-11
-2.80851e-09
4.95042e-11
-2.81681e-09
4.54962e-11
-2.8244e-09
4.15753e-11
-2.83128e-09
3.77408e-11
-2.83747e-09
3.39921e-11
-2.84299e-09
3.03285e-11
-2.84785e-09
2.67493e-11
-2.85208e-09
2.32536e-11
-2.85567e-09
1.98407e-11
-2.85865e-09
1.65096e-11
-2.86104e-09
1.32595e-11
-2.86285e-09
1.00895e-11
-2.86409e-09
6.99852e-12
-2.86477e-09
3.98573e-12
1.05008e-12
-2.86492e-09
-9.13638e-11
5.16765e-10
-1.81862e-10
5.11871e-10
-2.71438e-10
5.06656e-10
-3.60037e-10
5.0114e-10
-4.47611e-10
4.95342e-10
-5.34111e-10
4.8928e-10
-6.19495e-10
4.82971e-10
-7.0372e-10
4.76434e-10
-7.86751e-10
4.69684e-10
-8.68552e-10
4.62738e-10
-9.49091e-10
4.55612e-10
-1.02834e-09
4.48321e-10
-1.10627e-09
4.4088e-10
-1.18285e-09
4.33303e-10
-1.25808e-09
4.25604e-10
-1.33192e-09
4.17795e-10
-1.40436e-09
4.0989e-10
-1.47538e-09
4.01902e-10
-1.54498e-09
3.9384e-10
-1.61314e-09
3.85718e-10
-1.67985e-09
3.77545e-10
-1.7451e-09
3.69332e-10
-1.8089e-09
3.6109e-10
-1.87123e-09
3.52826e-10
-1.9321e-09
3.44551e-10
-1.9915e-09
3.36273e-10
-2.04943e-09
3.28e-10
-2.1059e-09
3.1974e-10
-2.16091e-09
3.11501e-10
-2.21447e-09
3.03288e-10
-2.26658e-09
2.9511e-10
-2.31725e-09
2.86972e-10
-2.36649e-09
2.78879e-10
-2.4143e-09
2.70839e-10
-2.4607e-09
2.62855e-10
-2.50569e-09
2.54933e-10
-2.5493e-09
2.47078e-10
-2.59153e-09
2.39293e-10
-2.63239e-09
2.31583e-10
-2.6719e-09
2.23951e-10
-2.71008e-09
2.16402e-10
-2.74694e-09
2.08937e-10
-2.78249e-09
2.01561e-10
-2.81675e-09
1.94275e-10
-2.84974e-09
1.87083e-10
-2.88147e-09
1.79986e-10
-2.91196e-09
1.72987e-10
-2.94124e-09
1.66088e-10
-2.96931e-09
1.59289e-10
-2.9962e-09
1.52594e-10
-3.02192e-09
1.46002e-10
-3.0465e-09
1.39516e-10
-3.06994e-09
1.33135e-10
-3.09228e-09
1.26862e-10
-3.11353e-09
1.20696e-10
-3.13371e-09
1.14638e-10
-3.15283e-09
1.08688e-10
-3.17093e-09
1.02848e-10
-3.18801e-09
9.71161e-11
-3.20409e-09
9.14933e-11
-3.2192e-09
8.59793e-11
-3.23336e-09
8.05741e-11
-3.24658e-09
7.52772e-11
-3.25889e-09
7.00884e-11
-3.2703e-09
6.50073e-11
-3.28083e-09
6.00332e-11
-3.29049e-09
5.51656e-11
-3.29932e-09
5.04038e-11
-3.30733e-09
4.57471e-11
-3.31453e-09
4.11947e-11
-3.32095e-09
3.67457e-11
-3.3266e-09
3.23992e-11
-3.3315e-09
2.81543e-11
-3.33567e-09
2.40099e-11
-3.33912e-09
1.9965e-11
-3.34188e-09
1.60185e-11
-3.34396e-09
1.21694e-11
-3.34538e-09
8.4163e-12
-3.34615e-09
4.7582e-12
1.19384e-12
-3.3463e-09
-1.07405e-10
6.24169e-10
-2.13792e-10
6.18258e-10
-3.19094e-10
6.11958e-10
-4.23248e-10
6.05294e-10
-5.26195e-10
5.98289e-10
-6.2788e-10
5.90965e-10
-7.28251e-10
5.83342e-10
-8.2726e-10
5.75443e-10
-9.24863e-10
5.67287e-10
-1.02102e-09
5.58894e-10
-1.11569e-09
5.50283e-10
-1.20884e-09
5.41473e-10
-1.30044e-09
5.32481e-10
-1.39046e-09
5.23325e-10
-1.47888e-09
5.1402e-10
-1.56567e-09
5.04584e-10
-1.65081e-09
4.95032e-10
-1.73429e-09
4.85378e-10
-1.81608e-09
4.75636e-10
-1.89619e-09
4.6582e-10
-1.97458e-09
4.55944e-10
-2.05127e-09
4.4602e-10
-2.12624e-09
4.36059e-10
-2.19949e-09
4.26073e-10
-2.27101e-09
4.16073e-10
-2.34081e-09
4.0607e-10
-2.40888e-09
3.96073e-10
-2.47523e-09
3.86092e-10
-2.53987e-09
3.76136e-10
-2.60279e-09
3.66212e-10
-2.66401e-09
3.5633e-10
-2.72353e-09
3.46496e-10
-2.78137e-09
3.36718e-10
-2.83754e-09
3.27003e-10
-2.89204e-09
3.17356e-10
-2.94489e-09
3.07785e-10
-2.9961e-09
2.98293e-10
-3.0457e-09
2.88888e-10
-3.09369e-09
2.79572e-10
-3.14009e-09
2.70352e-10
-3.18492e-09
2.61231e-10
-3.22819e-09
2.52213e-10
-3.26993e-09
2.43301e-10
-3.31016e-09
2.345e-10
-3.34889e-09
2.25811e-10
-3.38614e-09
2.17238e-10
-3.42194e-09
2.08783e-10
-3.4563e-09
2.00448e-10
-3.48924e-09
1.92236e-10
-3.5208e-09
1.84148e-10
-3.55098e-09
1.76186e-10
-3.57982e-09
1.68351e-10
-3.60733e-09
1.60645e-10
-3.63353e-09
1.53067e-10
-3.65846e-09
1.4562e-10
-3.68212e-09
1.38303e-10
-3.70455e-09
1.31118e-10
-3.72577e-09
1.24064e-10
-3.74579e-09
1.17142e-10
-3.76465e-09
1.10351e-10
-3.78236e-09
1.03692e-10
-3.79895e-09
9.71645e-11
-3.81444e-09
9.0768e-11
-3.82886e-09
8.45022e-11
-3.84222e-09
7.83665e-11
-3.85454e-09
7.23602e-11
-3.86586e-09
6.64826e-11
-3.87619e-09
6.0733e-11
-3.88555e-09
5.51103e-11
-3.89397e-09
4.96137e-11
-3.90147e-09
4.42421e-11
-3.90806e-09
3.89944e-11
-3.91378e-09
3.38694e-11
-3.91864e-09
2.88659e-11
-3.92265e-09
2.39827e-11
-3.92585e-09
1.92184e-11
-3.92826e-09
1.45716e-11
-3.92988e-09
1.00411e-11
-3.93075e-09
5.62521e-12
1.32263e-12
-3.93088e-09
-1.26801e-10
7.50971e-10
-2.52401e-10
7.43857e-10
-3.76719e-10
7.36277e-10
-4.99682e-10
7.28257e-10
-6.21219e-10
7.19826e-10
-7.41264e-10
7.1101e-10
-8.59757e-10
7.01835e-10
-9.76641e-10
6.92327e-10
-1.09186e-09
6.82509e-10
-1.20538e-09
6.72406e-10
-1.31713e-09
6.6204e-10
-1.42709e-09
6.51434e-10
-1.53522e-09
6.40609e-10
-1.64148e-09
6.29586e-10
-1.74585e-09
6.18385e-10
-1.84829e-09
6.07026e-10
-1.94878e-09
5.95525e-10
-2.04731e-09
5.83903e-10
-2.14385e-09
5.72175e-10
-2.23839e-09
5.60358e-10
-2.33091e-09
5.48469e-10
-2.42141e-09
5.36521e-10
-2.50988e-09
5.24529e-10
-2.59632e-09
5.12508e-10
-2.68071e-09
5.0047e-10
-2.76307e-09
4.88428e-10
-2.84339e-09
4.76394e-10
-2.92168e-09
4.64378e-10
-2.99794e-09
4.52393e-10
-3.07217e-09
4.40447e-10
-3.14439e-09
4.28551e-10
-3.21461e-09
4.16714e-10
-3.28284e-09
4.04944e-10
-3.34908e-09
3.9325e-10
-3.41337e-09
3.81639e-10
-3.4757e-09
3.70118e-10
-3.5361e-09
3.58694e-10
-3.59458e-09
3.47373e-10
-3.65117e-09
3.36161e-10
-3.70589e-09
3.25064e-10
-3.75874e-09
3.14087e-10
-3.80976e-09
3.03233e-10
-3.85897e-09
2.92509e-10
-3.90639e-09
2.81916e-10
-3.95204e-09
2.7146e-10
-3.99594e-09
2.61144e-10
-4.03813e-09
2.50969e-10
-4.07862e-09
2.4094e-10
-4.11744e-09
2.31058e-10
-4.15462e-09
2.21327e-10
-4.19018e-09
2.11746e-10
-4.22415e-09
2.02319e-10
-4.25655e-09
1.93046e-10
-4.28741e-09
1.8393e-10
-4.31676e-09
1.7497e-10
-4.34462e-09
1.66167e-10
-4.37103e-09
1.57522e-10
-4.396e-09
1.49036e-10
-4.41957e-09
1.40709e-10
-4.44176e-09
1.3254e-10
-4.4626e-09
1.2453e-10
-4.48211e-09
1.16678e-10
-4.50032e-09
1.08984e-10
-4.51727e-09
1.01447e-10
-4.53297e-09
9.4067e-11
-4.54745e-09
8.68428e-11
-4.56074e-09
7.97737e-11
-4.57287e-09
7.28586e-11
-4.58386e-09
6.60964e-11
-4.59373e-09
5.94861e-11
-4.60251e-09
5.30262e-11
-4.61023e-09
4.67155e-11
-4.61692e-09
4.05525e-11
-4.62259e-09
3.45359e-11
-4.62727e-09
2.8664e-11
-4.63098e-09
2.29353e-11
-4.63376e-09
1.73482e-11
-4.63562e-09
1.19008e-11
-4.63659e-09
6.59158e-12
1.41868e-12
-4.63668e-09
-1.5017e-10
9.01141e-10
-2.98917e-10
8.92604e-10
-4.46146e-10
8.83505e-10
-5.91768e-10
8.73879e-10
-7.35701e-10
8.63758e-10
-8.77865e-10
8.53175e-10
-1.01819e-09
8.4216e-10
-1.15661e-09
8.30744e-10
-1.29305e-09
8.18956e-10
-1.42747e-09
8.06825e-10
-1.55981e-09
7.94378e-10
-1.69002e-09
7.81643e-10
-1.81805e-09
7.68644e-10
-1.94387e-09
7.55408e-10
-2.06745e-09
7.41958e-10
-2.18874e-09
7.28316e-10
-2.30772e-09
7.14507e-10
-2.42437e-09
7.0055e-10
-2.53866e-09
6.86467e-10
-2.65057e-09
6.72277e-10
-2.76011e-09
6.57999e-10
-2.86724e-09
6.43652e-10
-2.97196e-09
6.29252e-10
-3.07427e-09
6.14817e-10
-3.17416e-09
6.00362e-10
-3.27163e-09
5.85902e-10
-3.36669e-09
5.71452e-10
-3.45934e-09
5.57024e-10
-3.54958e-09
5.42633e-10
-3.63742e-09
5.2829e-10
-3.72288e-09
5.14007e-10
-3.80596e-09
4.99794e-10
-3.88668e-09
4.85663e-10
-3.96505e-09
4.71623e-10
-4.04109e-09
4.57682e-10
-4.11483e-09
4.43851e-10
-4.18627e-09
4.30136e-10
-4.25544e-09
4.16545e-10
-4.32236e-09
4.03086e-10
-4.38706e-09
3.89765e-10
-4.44956e-09
3.76587e-10
-4.50989e-09
3.63559e-10
-4.56807e-09
3.50685e-10
-4.62412e-09
3.37971e-10
-4.67808e-09
3.25421e-10
-4.72998e-09
3.13038e-10
-4.77983e-09
3.00827e-10
-4.82768e-09
2.8879e-10
-4.87356e-09
2.7693e-10
-4.91748e-09
2.65251e-10
-4.95949e-09
2.53754e-10
-4.99961e-09
2.42441e-10
-5.03788e-09
2.31314e-10
-5.07432e-09
2.20374e-10
-5.10897e-09
2.09622e-10
-5.14187e-09
1.9906e-10
-5.17303e-09
1.88688e-10
-5.2025e-09
1.78506e-10
-5.23031e-09
1.68515e-10
-5.25648e-09
1.58715e-10
-5.28106e-09
1.49105e-10
-5.30407e-09
1.39685e-10
-5.32554e-09
1.30455e-10
-5.3455e-09
1.21414e-10
-5.364e-09
1.12561e-10
-5.38105e-09
1.03896e-10
-5.39669e-09
9.54168e-11
-5.41096e-09
8.71226e-11
-5.42387e-09
7.90122e-11
-5.43547e-09
7.10841e-11
-5.44578e-09
6.33367e-11
-5.45484e-09
5.57686e-11
-5.46266e-09
4.83779e-11
-5.46929e-09
4.11628e-11
-5.47475e-09
3.41217e-11
-5.47906e-09
2.72524e-11
-5.48227e-09
2.05531e-11
-5.48439e-09
1.40217e-11
-5.48545e-09
7.65608e-12
1.45417e-12
-5.48549e-09
-1.78258e-10
1.0794e-09
-3.54826e-10
1.06917e-09
-5.29591e-10
1.05827e-09
-7.02448e-10
1.04674e-09
-8.73296e-10
1.03461e-09
-1.04204e-09
1.02192e-09
-1.20861e-09
1.00872e-09
-1.3729e-09
9.95038e-10
-1.53485e-09
9.80908e-10
-1.69439e-09
9.66367e-10
-1.85146e-09
9.51447e-10
-2.006e-09
9.3618e-10
-2.15795e-09
9.20598e-10
-2.30727e-09
9.04729e-10
-2.45392e-09
8.88605e-10
-2.59786e-09
8.72251e-10
-2.73905e-09
8.55695e-10
-2.87746e-09
8.38963e-10
-3.01307e-09
8.22079e-10
-3.14586e-09
8.05068e-10
-3.27582e-09
7.87951e-10
-3.40291e-09
7.70751e-10
-3.52715e-09
7.53489e-10
-3.64852e-09
7.36184e-10
-3.76701e-09
7.18855e-10
-3.88263e-09
7.01521e-10
-3.99538e-09
6.84198e-10
-4.10526e-09
6.66904e-10
-4.21228e-09
6.49652e-10
-4.31645e-09
6.3246e-10
-4.41778e-09
6.15339e-10
-4.51629e-09
5.98303e-10
-4.61199e-09
5.81365e-10
-4.7049e-09
5.64537e-10
-4.79505e-09
5.47829e-10
-4.88245e-09
5.31251e-10
-4.96713e-09
5.14814e-10
-5.04911e-09
4.98527e-10
-5.12842e-09
4.82397e-10
-5.20509e-09
4.66432e-10
-5.27914e-09
4.50641e-10
-5.35061e-09
4.35029e-10
-5.41953e-09
4.19603e-10
-5.48593e-09
4.04369e-10
-5.54984e-09
3.89331e-10
-5.6113e-09
3.74495e-10
-5.67033e-09
3.59864e-10
-5.72699e-09
3.45443e-10
-5.78129e-09
3.31235e-10
-5.83328e-09
3.17243e-10
-5.883e-09
3.0347e-10
-5.93048e-09
2.89919e-10
-5.97575e-09
2.7659e-10
-6.01887e-09
2.63486e-10
-6.05985e-09
2.50608e-10
-6.09875e-09
2.37958e-10
-6.1356e-09
2.25535e-10
-6.17043e-09
2.13341e-10
-6.20329e-09
2.01376e-10
-6.23422e-09
1.89639e-10
-6.26324e-09
1.78131e-10
-6.29041e-09
1.66852e-10
-6.31576e-09
1.558e-10
-6.33932e-09
1.44974e-10
-6.36113e-09
1.34375e-10
-6.38123e-09
1.24e-10
-6.39967e-09
1.13849e-10
-6.41646e-09
1.03919e-10
-6.43166e-09
9.42104e-11
-6.4453e-09
8.47199e-11
-6.45741e-09
7.54462e-11
-6.46803e-09
6.63873e-11
-6.47719e-09
5.75412e-11
-6.48493e-09
4.89058e-11
-6.49129e-09
4.04788e-11
-6.49629e-09
3.22579e-11
-6.49998e-09
2.42407e-11
-6.50238e-09
1.64247e-11
-6.50354e-09
8.80754e-12
1.38654e-12
-6.50347e-09
-2.11967e-10
1.29137e-09
-4.21924e-10
1.27913e-09
-6.29736e-10
1.26608e-09
-8.35276e-10
1.25228e-09
-1.03843e-09
1.23776e-09
-1.23908e-09
1.22257e-09
-1.43712e-09
1.20677e-09
-1.63247e-09
1.19038e-09
-1.82503e-09
1.17347e-09
-2.01471e-09
1.15605e-09
-2.20145e-09
1.13819e-09
-2.38518e-09
1.1199e-09
-2.56582e-09
1.10124e-09
-2.74333e-09
1.08224e-09
-2.91766e-09
1.06293e-09
-3.08875e-09
1.04335e-09
-3.25658e-09
1.02352e-09
-3.42109e-09
1.00348e-09
-3.58227e-09
9.83259e-10
-3.74009e-09
9.62886e-10
-3.89453e-09
9.42387e-10
-4.04556e-09
9.21789e-10
-4.19319e-09
9.01116e-10
-4.3374e-09
8.80392e-10
-4.47818e-09
8.5964e-10
-4.61554e-09
8.38882e-10
-4.74948e-09
8.18138e-10
-4.88001e-09
7.97428e-10
-5.00713e-09
7.76771e-10
-5.13085e-09
7.56183e-10
-5.25119e-09
7.35683e-10
-5.36818e-09
7.15285e-10
-5.48182e-09
6.95005e-10
-5.59214e-09
6.74857e-10
-5.69916e-09
6.54853e-10
-5.80291e-09
6.35006e-10
-5.90343e-09
6.15328e-10
-6.00073e-09
5.9583e-10
-6.09485e-09
5.7652e-10
-6.18583e-09
5.5741e-10
-6.2737e-09
5.38508e-10
-6.35849e-09
5.19821e-10
-6.44025e-09
5.01358e-10
-6.519e-09
4.83124e-10
-6.5948e-09
4.65126e-10
-6.66767e-09
4.4737e-10
-6.73767e-09
4.29862e-10
-6.80483e-09
4.12604e-10
-6.8692e-09
3.95603e-10
-6.93081e-09
3.7886e-10
-6.98972e-09
3.6238e-10
-7.04597e-09
3.46166e-10
-7.0996e-09
3.30219e-10
-7.15066e-09
3.14542e-10
-7.19918e-09
2.99136e-10
-7.24523e-09
2.84002e-10
-7.28884e-09
2.69142e-10
-7.33005e-09
2.54556e-10
-7.36892e-09
2.40244e-10
-7.40549e-09
2.26207e-10
-7.4398e-09
2.12444e-10
-7.4719e-09
1.98954e-10
-7.50184e-09
1.85737e-10
-7.52966e-09
1.72792e-10
-7.5554e-09
1.60117e-10
-7.57911e-09
1.47712e-10
-7.60084e-09
1.35574e-10
-7.62062e-09
1.23703e-10
-7.6385e-09
1.12095e-10
-7.65453e-09
1.00749e-10
-7.66875e-09
8.96633e-11
-7.6812e-09
7.88346e-11
-7.69192e-09
6.82608e-11
-7.70095e-09
5.79393e-11
-7.70834e-09
4.78674e-11
-7.71412e-09
3.80424e-11
-7.71834e-09
2.84613e-11
-7.72104e-09
1.91211e-11
-7.72225e-09
1.0019e-11
1.15175e-12
-7.72202e-09
-2.5239e-10
1.54376e-09
-5.02384e-10
1.52912e-09
-7.49823e-10
1.51352e-09
-9.94554e-10
1.49701e-09
-1.23644e-09
1.47964e-09
-1.47534e-09
1.46147e-09
-1.71113e-09
1.44256e-09
-1.94371e-09
1.42296e-09
-2.17296e-09
1.40271e-09
-2.39878e-09
1.38188e-09
-2.62109e-09
1.36049e-09
-2.8398e-09
1.33861e-09
-3.05484e-09
1.31628e-09
-3.26613e-09
1.29354e-09
-3.47363e-09
1.27042e-09
-3.67726e-09
1.24698e-09
-3.877e-09
1.22325e-09
-4.07279e-09
1.19927e-09
-4.26459e-09
1.17507e-09
-4.45239e-09
1.15068e-09
-4.63615e-09
1.12615e-09
-4.81585e-09
1.10149e-09
-4.99148e-09
1.07675e-09
-5.16304e-09
1.05195e-09
-5.33051e-09
1.02711e-09
-5.49389e-09
1.00227e-09
-5.65319e-09
9.77439e-10
-5.80842e-09
9.52655e-10
-5.95958e-09
9.27934e-10
-6.10669e-09
9.03297e-10
-6.24978e-09
8.78765e-10
-6.38885e-09
8.54357e-10
-6.52393e-09
8.30091e-10
-6.65506e-09
8.05982e-10
-6.78225e-09
7.82048e-10
-6.90555e-09
7.58302e-10
-7.02498e-09
7.3476e-10
-7.14059e-09
7.11433e-10
-7.2524e-09
6.88333e-10
-7.36046e-09
6.65473e-10
-7.46481e-09
6.42862e-10
-7.5655e-09
6.2051e-10
-7.66257e-09
5.98425e-10
-7.75606e-09
5.76617e-10
-7.84603e-09
5.55092e-10
-7.93252e-09
5.33858e-10
-8.01558e-09
5.1292e-10
-8.09525e-09
4.92283e-10
-8.17161e-09
4.71953e-10
-8.24468e-09
4.51935e-10
-8.31453e-09
4.32231e-10
-8.38121e-09
4.12845e-10
-8.44477e-09
3.93781e-10
-8.50527e-09
3.75039e-10
-8.56276e-09
3.56623e-10
-8.61729e-09
3.38534e-10
-8.66892e-09
3.20773e-10
-8.7177e-09
3.03339e-10
-8.76369e-09
2.86235e-10
-8.80695e-09
2.6946e-10
-8.84751e-09
2.53012e-10
-8.88545e-09
2.36893e-10
-8.92082e-09
2.21101e-10