/*--------------------------------*- C++ -*----------------------------------*\
  =========                 |
  \\      /  F ield         | OpenFOAM: The Open Source CFD Toolbox
   \\    /   O peration     | Website:  https://openfoam.org
    \\  /    A nd           | Version:  8
     \\/     M anipulation  |
\*---------------------------------------------------------------------------*/
FoamFile
{
    version     2.0;
    format      ascii;
    class       surfaceScalarField;
    location    "1000";
    object      phia;
}
// * * * * * * * * * * * * * * * * * * * * * * * * * * * * * * * * * * * * * //

dimensions      [0 3 -1 0 0 0 0];

internalField   nonuniform List<scalar> 
25360
(
-3.92048e-11
3.92475e-11
-7.80384e-11
3.88759e-11
-1.16477e-10
3.84801e-11
-1.54497e-10
3.80616e-11
-1.92077e-10
3.76218e-11
-2.29198e-10
3.7162e-11
-2.65841e-10
3.66836e-11
-3.01989e-10
3.61879e-11
-3.37626e-10
3.56762e-11
-3.72736e-10
3.51497e-11
-4.07306e-10
3.46096e-11
-4.41325e-10
3.40569e-11
-4.74779e-10
3.3493e-11
-5.0766e-10
3.29188e-11
-5.39957e-10
3.23353e-11
-5.71663e-10
3.17435e-11
-6.02771e-10
3.11445e-11
-6.33273e-10
3.05392e-11
-6.63165e-10
2.99283e-11
-6.92442e-10
2.93128e-11
-7.21099e-10
2.86935e-11
-7.49135e-10
2.80712e-11
-7.76547e-10
2.74466e-11
-8.03332e-10
2.68204e-11
-8.29491e-10
2.61933e-11
-8.55022e-10
2.5566e-11
-8.79928e-10
2.4939e-11
-9.04207e-10
2.43131e-11
-9.27862e-10
2.36886e-11
-9.50895e-10
2.30662e-11
-9.73309e-10
2.24463e-11
-9.95105e-10
2.18294e-11
-1.01629e-09
2.1216e-11
-1.03686e-09
2.06065e-11
-1.05683e-09
2.00013e-11
-1.0762e-09
1.94007e-11
-1.09498e-09
1.88051e-11
-1.11316e-09
1.82148e-11
-1.13076e-09
1.76302e-11
-1.14778e-09
1.70515e-11
-1.16423e-09
1.6479e-11
-1.18011e-09
1.59129e-11
-1.19544e-09
1.53534e-11
-1.21021e-09
1.48008e-11
-1.22444e-09
1.42553e-11
-1.23812e-09
1.37169e-11
-1.25128e-09
1.31859e-11
-1.26391e-09
1.26625e-11
-1.27603e-09
1.21467e-11
-1.28764e-09
1.16386e-11
-1.29876e-09
1.11384e-11
-1.30937e-09
1.06461e-11
-1.31951e-09
1.01618e-11
-1.32917e-09
9.68567e-12
-1.33836e-09
9.21761e-12
-1.34709e-09
8.75773e-12
-1.35537e-09
8.30604e-12
-1.36321e-09
7.86258e-12
-1.37061e-09
7.42735e-12
-1.37758e-09
7.00036e-12
-1.38414e-09
6.5816e-12
-1.39029e-09
6.17106e-12
-1.39603e-09
5.76872e-12
-1.40138e-09
5.37455e-12
-1.40634e-09
4.98853e-12
-1.41093e-09
4.61062e-12
-1.41515e-09
4.24076e-12
-1.419e-09
3.87891e-12
-1.4225e-09
3.52501e-12
-1.42566e-09
3.17901e-12
-1.42848e-09
2.84084e-12
-1.43096e-09
2.51043e-12
-1.43313e-09
2.18771e-12
-1.43498e-09
1.87261e-12
-1.43652e-09
1.56504e-12
-1.43777e-09
1.26493e-12
-1.43872e-09
9.72195e-13
-1.43938e-09
6.86741e-13
-1.43977e-09
4.08482e-13
1.37328e-13
-1.43988e-09
-4.0417e-11
7.96645e-11
-8.04514e-11
7.89103e-11
-1.20078e-10
7.81069e-11
-1.59274e-10
7.72573e-11
-1.98016e-10
7.63644e-11
-2.36285e-10
7.54309e-11
-2.74061e-10
7.44597e-11
-3.11327e-10
7.34533e-11
-3.48065e-10
7.24144e-11
-3.84261e-10
7.13453e-11
-4.199e-10
7.02487e-11
-4.54969e-10
6.91267e-11
-4.89458e-10
6.79816e-11
-5.23355e-10
6.68157e-11
-5.56651e-10
6.5631e-11
-5.89336e-10
6.44295e-11
-6.21405e-10
6.32132e-11
-6.5285e-10
6.1984e-11
-6.83665e-10
6.07437e-11
-7.13846e-10
5.94939e-11
-7.43389e-10
5.82364e-11
-7.72291e-10
5.69728e-11
-8.00549e-10
5.57045e-11
-8.28161e-10
5.4433e-11
-8.55128e-10
5.31597e-11
-8.81448e-10
5.18859e-11
-9.07122e-10
5.06129e-11
-9.3215e-10
4.93418e-11
-9.56536e-10
4.80738e-11
-9.80279e-10
4.68099e-11
-1.00338e-09
4.55512e-11
-1.02585e-09
4.42987e-11
-1.04769e-09
4.30531e-11
-1.0689e-09
4.18155e-11
-1.08949e-09
4.05866e-11
-1.10945e-09
3.93671e-11
-1.1288e-09
3.81577e-11
-1.14755e-09
3.69592e-11
-1.16569e-09
3.57721e-11
-1.18324e-09
3.45971e-11
-1.20019e-09
3.34346e-11
-1.21656e-09
3.22851e-11
-1.23236e-09
3.11491e-11
-1.24759e-09
3.00271e-11
-1.26225e-09
2.89193e-11
-1.27636e-09
2.78262e-11
-1.28992e-09
2.67481e-11
-1.30294e-09
2.56852e-11
-1.31544e-09
2.46379e-11
-1.3274e-09
2.36063e-11
-1.33886e-09
2.25906e-11
-1.3498e-09
2.15911e-11
-1.36025e-09
2.06079e-11
-1.3702e-09
1.9641e-11
-1.37967e-09
1.86907e-11
-1.38867e-09
1.77569e-11
-1.39721e-09
1.68398e-11
-1.40528e-09
1.59394e-11
-1.41291e-09
1.50558e-11
-1.4201e-09
1.41888e-11
-1.42686e-09
1.33386e-11
-1.43319e-09
1.25051e-11
-1.43911e-09
1.16882e-11
-1.44463e-09
1.08879e-11
-1.44974e-09
1.01042e-11
-1.45447e-09
9.3369e-12
-1.45881e-09
8.58598e-12
-1.46278e-09
7.85134e-12
-1.46639e-09
7.13284e-12
-1.46964e-09
6.43038e-12
-1.47255e-09
5.74382e-12
-1.47511e-09
5.07302e-12
-1.47734e-09
4.41784e-12
-1.47925e-09
3.77813e-12
-1.48083e-09
3.15372e-12
-1.48211e-09
2.54446e-12
-1.48309e-09
1.95016e-12
-1.48378e-09
1.37065e-12
-1.48417e-09
8.05761e-13
2.55297e-13
-1.48429e-09
-4.28794e-11
1.22544e-10
-8.53528e-11
1.21384e-10
-1.27394e-10
1.20148e-10
-1.68977e-10
1.18841e-10
-2.1008e-10
1.17467e-10
-2.5068e-10
1.16031e-10
-2.90757e-10
1.14537e-10
-3.30293e-10
1.12989e-10
-3.69269e-10
1.1139e-10
-4.07669e-10
1.09746e-10
-4.45479e-10
1.08058e-10
-4.82684e-10
1.06332e-10
-5.19273e-10
1.0457e-10
-5.55234e-10
1.02777e-10
-5.90557e-10
1.00954e-10
-6.25233e-10
9.91055e-11
-6.59254e-10
9.72342e-11
-6.92613e-10
9.5343e-11
-7.25304e-10
9.34347e-11
-7.57322e-10
9.15119e-11
-7.88663e-10
8.95772e-11
-8.19323e-10
8.76331e-11
-8.493e-10
8.56818e-11
-8.78593e-10
8.37255e-11
-9.072e-10
8.17665e-11
-9.3512e-10
7.98067e-11
-9.62356e-10
7.78481e-11
-9.88906e-10
7.58925e-11
-1.01477e-09
7.39416e-11
-1.03996e-09
7.19971e-11
-1.06447e-09
7.00606e-11
-1.08831e-09
6.81335e-11
-1.11147e-09
6.62172e-11
-1.13397e-09
6.43131e-11
-1.1558e-09
6.24223e-11
-1.17698e-09
6.05461e-11
-1.19751e-09
5.86855e-11
-1.21739e-09
5.68416e-11
-1.23664e-09
5.50153e-11
-1.25525e-09
5.32075e-11
-1.27323e-09
5.1419e-11
-1.2906e-09
4.96505e-11
-1.30735e-09
4.79029e-11
-1.3235e-09
4.61766e-11
-1.33905e-09
4.44724e-11
-1.35402e-09
4.27907e-11
-1.3684e-09
4.11321e-11
-1.38221e-09
3.94969e-11
-1.39546e-09
3.78856e-11
-1.40815e-09
3.62986e-11
-1.4203e-09
3.47361e-11
-1.4319e-09
3.31984e-11
-1.44298e-09
3.16857e-11
-1.45354e-09
3.01983e-11
-1.46359e-09
2.87363e-11
-1.47313e-09
2.72999e-11
-1.48218e-09
2.5889e-11
-1.49074e-09
2.45039e-11
-1.49883e-09
2.31445e-11
-1.50645e-09
2.18108e-11
-1.51362e-09
2.05028e-11
-1.52033e-09
1.92206e-11
-1.52661e-09
1.79639e-11
-1.53245e-09
1.67329e-11
-1.53788e-09
1.55272e-11
-1.54289e-09
1.43469e-11
-1.54749e-09
1.31918e-11
-1.5517e-09
1.20617e-11
-1.55553e-09
1.09564e-11
-1.55897e-09
9.87581e-12
-1.56205e-09
8.81969e-12
-1.56476e-09
7.78783e-12
-1.56712e-09
6.78e-12
-1.56914e-09
5.79596e-12
-1.57082e-09
4.83548e-12
-1.57218e-09
3.89829e-12
-1.57321e-09
2.98413e-12
-1.57393e-09
2.09273e-12
-1.57435e-09
1.22381e-12
3.77095e-13
-1.57447e-09
-4.66686e-11
1.69213e-10
-9.28954e-11
1.6761e-10
-1.38651e-10
1.65904e-10
-1.83909e-10
1.64099e-10
-2.28644e-10
1.62202e-10
-2.72832e-10
1.60219e-10
-3.1645e-10
1.58155e-10
-3.59478e-10
1.56017e-10
-4.01898e-10
1.5381e-10
-4.4369e-10
1.51538e-10
-4.8484e-10
1.49208e-10
-5.25332e-10
1.46824e-10
-5.65153e-10
1.44391e-10
-6.0429e-10
1.41914e-10
-6.42733e-10
1.39397e-10
-6.80471e-10
1.36844e-10
-7.17496e-10
1.34259e-10
-7.538e-10
1.31647e-10
-7.89378e-10
1.29012e-10
-8.24222e-10
1.26356e-10
-8.58329e-10
1.23684e-10
-8.91696e-10
1.20999e-10
-9.24318e-10
1.18304e-10
-9.56195e-10
1.15603e-10
-9.87326e-10
1.12897e-10
-1.01771e-09
1.10191e-10
-1.04735e-09
1.07486e-10
-1.07624e-09
1.04785e-10
-1.10439e-09
1.0209e-10
-1.1318e-09
9.9405e-11
-1.15847e-09
9.67305e-11
-1.1844e-09
9.40691e-11
-1.20961e-09
9.14226e-11
-1.23409e-09
8.8793e-11
-1.25785e-09
8.61818e-11
-1.28089e-09
8.35907e-11
-1.30323e-09
8.10212e-11
-1.32486e-09
7.84747e-11
-1.3458e-09
7.59525e-11
-1.36605e-09
7.34559e-11
-1.38561e-09
7.0986e-11
-1.40451e-09
6.85438e-11
-1.42273e-09
6.61303e-11
-1.4403e-09
6.37464e-11
-1.45722e-09
6.13929e-11
-1.4735e-09
5.90705e-11
-1.48915e-09
5.678e-11
-1.50418e-09
5.45219e-11
-1.51859e-09
5.22968e-11
-1.53239e-09
5.01052e-11
-1.54561e-09
4.79475e-11
-1.55823e-09
4.58241e-11
-1.57028e-09
4.37353e-11
-1.58176e-09
4.16813e-11
-1.59269e-09
3.96625e-11
-1.60307e-09
3.76788e-11
-1.61291e-09
3.57306e-11
-1.62222e-09
3.38179e-11
-1.63102e-09
3.19408e-11
-1.63931e-09
3.00991e-11
-1.6471e-09
2.82931e-11
-1.6544e-09
2.65225e-11
-1.66123e-09
2.47873e-11
-1.66758e-09
2.30874e-11
-1.67347e-09
2.14226e-11
-1.67892e-09
1.97928e-11
-1.68393e-09
1.81978e-11
-1.6885e-09
1.66374e-11
-1.69266e-09
1.51113e-11
-1.6964e-09
1.36193e-11
-1.69974e-09
1.2161e-11
-1.70269e-09
1.07363e-11
-1.70526e-09
9.34474e-12
-1.70745e-09
7.98606e-12
-1.70927e-09
6.6599e-12
-1.71074e-09
5.36591e-12
-1.71186e-09
4.10374e-12
-1.71264e-09
2.873e-12
-1.71309e-09
1.67331e-12
5.04271e-13
-1.71321e-09
-5.19029e-11
2.21115e-10
-1.03314e-10
2.19022e-10
-1.54202e-10
2.16791e-10
-2.04536e-10
2.14433e-10
-2.54288e-10
2.11954e-10
-3.03431e-10
2.09362e-10
-3.51941e-10
2.06665e-10
-3.99794e-10
2.03871e-10
-4.4697e-10
2.00986e-10
-4.93449e-10
1.98017e-10
-5.39213e-10
1.94972e-10
-5.84244e-10
1.91856e-10
-6.28529e-10
1.88676e-10
-6.72053e-10
1.85438e-10
-7.14805e-10
1.82148e-10
-7.56773e-10
1.78811e-10
-7.97947e-10
1.75434e-10
-8.3832e-10
1.7202e-10
-8.77883e-10
1.68575e-10
-9.16632e-10
1.65105e-10
-9.54559e-10
1.61612e-10
-9.91663e-10
1.58103e-10
-1.02794e-09
1.54581e-10
-1.06339e-09
1.5105e-10
-1.098e-09
1.47513e-10
-1.13179e-09
1.43976e-10
-1.16474e-09
1.40441e-10
-1.19687e-09
1.36911e-10
-1.22817e-09
1.33389e-10
-1.25864e-09
1.2988e-10
-1.2883e-09
1.26384e-10
-1.31713e-09
1.22906e-10
-1.34516e-09
1.19447e-10
-1.37237e-09
1.1601e-10
-1.39879e-09
1.12597e-10
-1.42441e-09
1.09211e-10
-1.44924e-09
1.05853e-10
-1.47329e-09
1.02525e-10
-1.49657e-09
9.92286e-11
-1.51908e-09
9.59658e-11
-1.54083e-09
9.27379e-11
-1.56183e-09
8.95462e-11
-1.58209e-09
8.6392e-11
-1.60162e-09
8.32766e-11
-1.62043e-09
8.02009e-11
-1.63853e-09
7.71659e-11
-1.65592e-09
7.41726e-11
-1.67262e-09
7.12217e-11
-1.68864e-09
6.83139e-11
-1.70398e-09
6.54499e-11
-1.71866e-09
6.26302e-11
-1.7327e-09
5.98553e-11
-1.74609e-09
5.71256e-11
-1.75885e-09
5.44416e-11
-1.77099e-09
5.18034e-11
-1.78252e-09
4.92113e-11
-1.79345e-09
4.66655e-11
-1.8038e-09
4.41661e-11
-1.81358e-09
4.17132e-11
-1.82278e-09
3.93067e-11
-1.83144e-09
3.69467e-11
-1.83955e-09
3.46331e-11
-1.84713e-09
3.23657e-11
-1.85418e-09
3.01445e-11
-1.86073e-09
2.79692e-11
-1.86678e-09
2.58397e-11
-1.87233e-09
2.37556e-11
-1.87741e-09
2.17167e-11
-1.88202e-09
1.97227e-11
-1.88618e-09
1.77732e-11
-1.88989e-09
1.58678e-11
-1.89316e-09
1.40063e-11
-1.896e-09
1.21881e-11
-1.89843e-09
1.04129e-11
-1.90045e-09
8.68026e-12
-1.90207e-09
6.98962e-12
-1.90331e-09
5.34056e-12
-1.90417e-09
3.73258e-12
-1.90466e-09
2.16519e-12
6.37859e-13
-1.90479e-09
-5.87457e-11
2.79861e-10
-1.16935e-10
2.77211e-10
-1.74532e-10
2.74388e-10
-2.31501e-10
2.71402e-10
-2.87812e-10
2.68264e-10
-3.43433e-10
2.64983e-10
-3.98338e-10
2.6157e-10
-4.52499e-10
2.58032e-10
-5.05893e-10
2.5438e-10
-5.58498e-10
2.50622e-10
-6.10293e-10
2.46767e-10
-6.61259e-10
2.42822e-10
-7.1138e-10
2.38796e-10
-7.60639e-10
2.34697e-10
-8.09023e-10
2.30532e-10
-8.5652e-10
2.26308e-10
-9.03118e-10
2.22032e-10
-9.48808e-10
2.1771e-10
-9.93582e-10
2.13349e-10
-1.03743e-09
2.08955e-10
-1.08035e-09
2.04534e-10
-1.12234e-09
2.00091e-10
-1.16339e-09
1.95632e-10
-1.20351e-09
1.91162e-10
-1.24268e-09
1.86685e-10
-1.28091e-09
1.82207e-10
-1.3182e-09
1.77731e-10
-1.35455e-09
1.73263e-10
-1.38997e-09
1.68805e-10
-1.42445e-09
1.64361e-10
-1.458e-09
1.59936e-10
-1.49063e-09
1.55533e-10
-1.52234e-09
1.51155e-10
-1.55313e-09
1.46804e-10
-1.58302e-09
1.42484e-10
-1.612e-09
1.38197e-10
-1.6401e-09
1.33946e-10
-1.6673e-09
1.29733e-10
-1.69364e-09
1.2556e-10
-1.7191e-09
1.2143e-10
-1.74371e-09
1.17344e-10
-1.76746e-09
1.13304e-10
-1.79038e-09
1.09311e-10
-1.81247e-09
1.05367e-10
-1.83375e-09
1.01474e-10
-1.85421e-09
9.76325e-11
-1.87388e-09
9.38436e-11
-1.89277e-09
9.01084e-11
-1.91088e-09
8.64278e-11
-1.92824e-09
8.28027e-11
-1.94484e-09
7.92337e-11
-1.96071e-09
7.57214e-11
-1.97585e-09
7.22665e-11
-1.99028e-09
6.88692e-11
-2.004e-09
6.55301e-11
-2.01704e-09
6.22493e-11
-2.0294e-09
5.90272e-11
-2.0411e-09
5.58638e-11
-2.05215e-09
5.27592e-11
-2.06255e-09
4.97135e-11
-2.07233e-09
4.67267e-11
-2.0815e-09
4.37985e-11
-2.09006e-09
4.0929e-11
-2.09803e-09
3.81179e-11
-2.10543e-09
3.53649e-11
-2.11226e-09
3.26699e-11
-2.11854e-09
3.00324e-11
-2.12427e-09
2.74521e-11
-2.12948e-09
2.49286e-11
-2.13417e-09
2.24615e-11
-2.13835e-09
2.00503e-11
-2.14204e-09
1.76946e-11
-2.14524e-09
1.53938e-11
-2.14798e-09
1.31474e-11
-2.15025e-09
1.09548e-11
-2.15208e-09
8.81543e-12
-2.15347e-09
6.72871e-12
-2.15443e-09
4.69399e-12
-2.15497e-09
2.71064e-12
7.78021e-13
-2.15511e-09
-6.74113e-11
3.47272e-10
-1.34184e-10
3.43984e-10
-2.00277e-10
3.40481e-10
-2.65649e-10
3.36775e-10
-3.30266e-10
3.32881e-10
-3.94091e-10
3.28809e-10
-4.57093e-10
3.24572e-10
-5.19242e-10
3.20181e-10
-5.80511e-10
3.15648e-10
-6.40873e-10
3.10984e-10
-7.00305e-10
3.06199e-10
-7.58785e-10
3.01303e-10
-8.16295e-10
2.96306e-10
-8.72815e-10
2.91218e-10
-9.28331e-10
2.86048e-10
-9.82828e-10
2.80805e-10
-1.03629e-09
2.75497e-10
-1.08872e-09
2.70133e-10
-1.14009e-09
2.6472e-10
-1.1904e-09
2.59266e-10
-1.23964e-09
2.53779e-10
-1.28782e-09
2.48264e-10
-1.33491e-09
2.42729e-10
-1.38093e-09
2.37181e-10
-1.42587e-09
2.31624e-10
-1.46973e-09
2.26065e-10
-1.51251e-09
2.2051e-10
-1.55421e-09
2.14964e-10
-1.59483e-09
2.0943e-10
-1.63439e-09
2.03916e-10
-1.67287e-09
1.98423e-10
-1.7103e-09
1.92958e-10
-1.74667e-09
1.87523e-10
-1.78199e-09
1.82124e-10
-1.81627e-09
1.76762e-10
-1.84951e-09
1.71441e-10
-1.88173e-09
1.66165e-10
-1.91293e-09
1.60936e-10
-1.94313e-09
1.55758e-10
-1.97233e-09
1.50632e-10
-2.00055e-09
1.45561e-10
-2.02779e-09
1.40547e-10
-2.05407e-09
1.35591e-10
-2.0794e-09
1.30697e-10
-2.10379e-09
1.25866e-10
-2.12726e-09
1.21098e-10
-2.14981e-09
1.16396e-10
-2.17146e-09
1.11761e-10
-2.19223e-09
1.07193e-10
-2.21212e-09
1.02695e-10
-2.23115e-09
9.82658e-11
-2.24934e-09
9.39074e-11
-2.26669e-09
8.96201e-11
-2.28323e-09
8.54044e-11
-2.29896e-09
8.1261e-11
-2.3139e-09
7.719e-11
-2.32806e-09
7.31918e-11
-2.34147e-09
6.92666e-11
-2.35412e-09
6.54144e-11
-2.36604e-09
6.16353e-11
-2.37725e-09
5.79292e-11
-2.38774e-09
5.42961e-11
-2.39755e-09
5.07357e-11
-2.40668e-09
4.72478e-11
-2.41515e-09
4.38321e-11
-2.42297e-09
4.04883e-11
-2.43015e-09
3.7216e-11
-2.43671e-09
3.40147e-11
-2.44267e-09
3.08839e-11
-2.44803e-09
2.78232e-11
-2.45281e-09
2.48318e-11
-2.45703e-09
2.19093e-11
-2.46069e-09
1.90549e-11
-2.46381e-09
1.6268e-11
-2.4664e-09
1.3548e-11
-2.46848e-09
1.0894e-11
-2.47006e-09
8.30538e-12
-2.47114e-09
5.7813e-12
-2.47175e-09
3.32098e-12
9.23607e-13
-2.4719e-09
-7.81712e-11
4.25444e-10
-1.55602e-10
4.21415e-10
-2.32244e-10
4.17122e-10
-3.08051e-10
4.12582e-10
-3.8298e-10
4.0781e-10
-4.56991e-10
4.0282e-10
-5.30048e-10
3.97628e-10
-6.02115e-10
3.92248e-10
-6.7316e-10
3.86693e-10
-7.43153e-10
3.80977e-10
-8.12067e-10
3.75113e-10
-8.79877e-10
3.69113e-10
-9.46561e-10
3.62989e-10
-1.0121e-09
3.56754e-10
-1.07647e-09
3.50418e-10
-1.13965e-09
3.43993e-10
-1.20164e-09
3.37488e-10
-1.26243e-09
3.30914e-10
-1.32199e-09
3.2428e-10
-1.38031e-09
3.17596e-10
-1.43741e-09
3.10871e-10
-1.49326e-09
3.04112e-10
-1.54786e-09
2.97329e-10
-1.6012e-09
2.90529e-10
-1.6533e-09
2.8372e-10
-1.70414e-09
2.76908e-10
-1.75373e-09
2.701e-10
-1.80207e-09
2.63302e-10
-1.84916e-09
2.56522e-10
-1.89501e-09
2.49763e-10
-1.93962e-09
2.43033e-10
-1.983e-09
2.36335e-10
-2.02515e-09
2.29676e-10
-2.06608e-09
2.23058e-10
-2.10581e-09
2.16488e-10
-2.14434e-09
2.09968e-10
-2.18168e-09
2.03503e-10
-2.21784e-09
1.97096e-10
-2.25283e-09
1.9075e-10
-2.28667e-09
1.84469e-10
-2.31936e-09
1.78255e-10
-2.35092e-09
1.72111e-10
-2.38137e-09
1.6604e-10
-2.41072e-09
1.60043e-10
-2.43898e-09
1.54123e-10
-2.46616e-09
1.48282e-10
-2.49228e-09
1.42521e-10
-2.51737e-09
1.36841e-10
-2.54142e-09
1.31245e-10
-2.56446e-09
1.25734e-10
-2.5865e-09
1.20307e-10
-2.60756e-09
1.14968e-10
-2.62765e-09
1.09715e-10
-2.6468e-09
1.04551e-10
-2.66501e-09
9.94744e-11
-2.68231e-09
9.44871e-11
-2.69871e-09
8.95891e-11
-2.71422e-09
8.47805e-11
-2.72887e-09
8.00615e-11
-2.74266e-09
7.5432e-11
-2.75563e-09
7.08921e-11
-2.76777e-09
6.64417e-11
-2.77912e-09
6.20804e-11
-2.78968e-09
5.7808e-11
-2.79947e-09
5.36241e-11
-2.80851e-09
4.95283e-11
-2.81681e-09
4.55201e-11
-2.8244e-09
4.1599e-11
-2.83128e-09
3.77643e-11
-2.83747e-09
3.40154e-11
-2.84299e-09
3.03516e-11
-2.84785e-09
2.67722e-11
-2.85208e-09
2.32763e-11
-2.85567e-09
1.98632e-11
-2.85865e-09
1.65319e-11
-2.86104e-09
1.32816e-11
-2.86285e-09
1.01114e-11
-2.86409e-09
7.02025e-12
-2.86477e-09
4.00726e-12
1.07143e-12
-2.86492e-09
-9.13638e-11
5.16808e-10
-1.81862e-10
5.11913e-10
-2.71438e-10
5.06698e-10
-3.60037e-10
5.01182e-10
-4.47611e-10
4.95383e-10
-5.34111e-10
4.89321e-10
-6.19495e-10
4.83012e-10
-7.0372e-10
4.76474e-10
-7.86751e-10
4.69724e-10
-8.68552e-10
4.62778e-10
-9.49091e-10
4.55651e-10
-1.02834e-09
4.4836e-10
-1.10627e-09
4.40919e-10
-1.18285e-09
4.33341e-10
-1.25808e-09
4.25642e-10
-1.33192e-09
4.17833e-10
-1.40436e-09
4.09928e-10
-1.47538e-09
4.01938e-10
-1.54498e-09
3.93877e-10
-1.61314e-09
3.85754e-10
-1.67985e-09
3.77581e-10
-1.7451e-09
3.69368e-10
-1.8089e-09
3.61125e-10
-1.87123e-09
3.52861e-10
-1.9321e-09
3.44586e-10
-1.9915e-09
3.36308e-10
-2.04943e-09
3.28034e-10
-2.1059e-09
3.19774e-10
-2.16091e-09
3.11534e-10
-2.21447e-09
3.03322e-10
-2.26658e-09
2.95143e-10
-2.31725e-09
2.87004e-10
-2.36649e-09
2.78912e-10
-2.4143e-09
2.70871e-10
-2.4607e-09
2.62887e-10
-2.50569e-09
2.54965e-10
-2.5493e-09
2.47109e-10
-2.59153e-09
2.39324e-10
-2.63239e-09
2.31613e-10
-2.6719e-09
2.23982e-10
-2.71008e-09
2.16432e-10
-2.74694e-09
2.08967e-10
-2.78249e-09
2.0159e-10
-2.81675e-09
1.94304e-10
-2.84974e-09
1.87112e-10
-2.88147e-09
1.80015e-10
-2.91196e-09
1.73016e-10
-2.94124e-09
1.66116e-10
-2.96931e-09
1.59317e-10
-2.9962e-09
1.52622e-10
-3.02192e-09
1.4603e-10
-3.0465e-09
1.39543e-10
-3.06994e-09
1.33162e-10
-3.09228e-09
1.26889e-10
-3.11353e-09
1.20722e-10
-3.13371e-09
1.14664e-10
-3.15283e-09
1.08715e-10
-3.17093e-09
1.02874e-10
-3.18801e-09
9.71417e-11
-3.20409e-09
9.15187e-11
-3.2192e-09
8.60045e-11
-3.23336e-09
8.05991e-11
-3.24658e-09
7.5302e-11
-3.25889e-09
7.0113e-11
-3.2703e-09
6.50316e-11
-3.28083e-09
6.00573e-11
-3.29049e-09
5.51895e-11
-3.29932e-09
5.04275e-11
-3.30733e-09
4.57706e-11
-3.31453e-09
4.1218e-11
-3.32095e-09
3.67688e-11
-3.3266e-09
3.24221e-11
-3.3315e-09
2.8177e-11
-3.33567e-09
2.40324e-11
-3.33912e-09
1.99873e-11
-3.34188e-09
1.60406e-11
-3.34396e-09
1.21913e-11
-3.34538e-09
8.43802e-12
-3.34615e-09
4.77973e-12
1.21519e-12
-3.3463e-09
-1.07405e-10
6.24212e-10
-2.13792e-10
6.183e-10
-3.19094e-10
6.12e-10
-4.23248e-10
6.05336e-10
-5.26195e-10
5.98331e-10
-6.2788e-10
5.91006e-10
-7.28251e-10
5.83383e-10
-8.2726e-10
5.75483e-10
-9.24863e-10
5.67327e-10
-1.02102e-09
5.58934e-10
-1.11569e-09
5.50322e-10
-1.20884e-09
5.41512e-10
-1.30044e-09
5.3252e-10
-1.39046e-09
5.23363e-10
-1.47888e-09
5.14058e-10
-1.56567e-09
5.04622e-10
-1.65081e-09
4.95069e-10
-1.73429e-09
4.85414e-10
-1.81608e-09
4.75672e-10
-1.89619e-09
4.65856e-10
-1.97458e-09
4.5598e-10
-2.05127e-09
4.46055e-10
-2.12624e-09
4.36094e-10
-2.19949e-09
4.26108e-10
-2.27101e-09
4.16108e-10
-2.34081e-09
4.06104e-10
-2.40888e-09
3.96107e-10
-2.47523e-09
3.86126e-10
-2.53987e-09
3.76169e-10
-2.60279e-09
3.66245e-10
-2.66401e-09
3.56363e-10
-2.72353e-09
3.46529e-10
-2.78137e-09
3.3675e-10
-2.83754e-09
3.27035e-10
-2.89204e-09
3.17388e-10
-2.94489e-09
3.07816e-10
-2.9961e-09
2.98324e-10
-3.0457e-09
2.88918e-10
-3.09369e-09
2.79603e-10
-3.14009e-09
2.70382e-10
-3.18492e-09
2.61261e-10
-3.22819e-09
2.52242e-10
-3.26993e-09
2.43331e-10
-3.31016e-09
2.34529e-10
-3.34889e-09
2.2584e-10
-3.38614e-09
2.17267e-10
-3.42194e-09
2.08811e-10
-3.4563e-09
2.00477e-10
-3.48924e-09
1.92264e-10
-3.5208e-09
1.84176e-10
-3.55098e-09
1.76214e-10
-3.57982e-09
1.68379e-10
-3.60733e-09
1.60672e-10
-3.63353e-09
1.53094e-10
-3.65846e-09
1.45646e-10
-3.68212e-09
1.3833e-10
-3.70455e-09
1.31144e-10
-3.72577e-09
1.2409e-10
-3.74579e-09
1.17167e-10
-3.76465e-09
1.10376e-10
-3.78236e-09
1.03717e-10
-3.79895e-09
9.71895e-11
-3.81444e-09
9.07928e-11
-3.82886e-09
8.45268e-11
-3.84222e-09
7.83908e-11
-3.85454e-09
7.23843e-11
-3.86586e-09
6.65065e-11
-3.87619e-09
6.07567e-11
-3.88555e-09
5.51338e-11
-3.89397e-09
4.9637e-11
-3.90147e-09
4.42652e-11
-3.90806e-09
3.90173e-11
-3.91378e-09
3.38921e-11
-3.91864e-09
2.88884e-11
-3.92265e-09
2.4005e-11
-3.92585e-09
1.92405e-11
-3.92826e-09
1.45935e-11
-3.92988e-09
1.00628e-11
-3.93075e-09
5.64674e-12
1.34397e-12
-3.93088e-09
-1.26801e-10
7.51014e-10
-2.52401e-10
7.439e-10
-3.76719e-10
7.36319e-10
-4.99682e-10
7.28299e-10
-6.21219e-10
7.19867e-10
-7.41264e-10
7.11051e-10
-8.59757e-10
7.01876e-10
-9.76641e-10
6.92367e-10
-1.09186e-09
6.82549e-10
-1.20538e-09
6.72446e-10
-1.31713e-09
6.6208e-10
-1.42709e-09
6.51473e-10
-1.53522e-09
6.40648e-10
-1.64148e-09
6.29625e-10
-1.74585e-09
6.18423e-10
-1.84829e-09
6.07063e-10
-1.94878e-09
5.95563e-10
-2.04731e-09
5.8394e-10
-2.14385e-09
5.72211e-10
-2.23839e-09
5.60394e-10
-2.33091e-09
5.48504e-10
-2.42141e-09
5.36556e-10
-2.50988e-09
5.24565e-10
-2.59632e-09
5.12543e-10
-2.68071e-09
5.00505e-10
-2.76307e-09
4.88462e-10
-2.84339e-09
4.76427e-10
-2.92168e-09
4.64412e-10
-2.99794e-09
4.52426e-10
-3.07217e-09
4.4048e-10
-3.14439e-09
4.28584e-10
-3.21461e-09
4.16747e-10
-3.28284e-09
4.04977e-10
-3.34908e-09
3.93282e-10
-3.41337e-09
3.8167e-10
-3.4757e-09
3.70149e-10
-3.5361e-09
3.58725e-10
-3.59458e-09
3.47404e-10
-3.65117e-09
3.36192e-10
-3.70589e-09
3.25095e-10
-3.75874e-09
3.14117e-10
-3.80976e-09
3.03263e-10
-3.85897e-09
2.92538e-10
-3.90639e-09
2.81946e-10
-3.95204e-09
2.71489e-10
-3.99594e-09
2.61172e-10
-4.03813e-09
2.50998e-10
-4.07862e-09
2.40968e-10
-4.11744e-09
2.31086e-10
-4.15462e-09
2.21354e-10
-4.19018e-09
2.11774e-10
-4.22415e-09
2.02346e-10
-4.25655e-09
1.93073e-10
-4.28741e-09
1.83956e-10
-4.31676e-09
1.74996e-10
-4.34462e-09
1.66193e-10
-4.37103e-09
1.57549e-10
-4.396e-09
1.49062e-10
-4.41957e-09
1.40734e-10
-4.44176e-09
1.32565e-10
-4.4626e-09
1.24555e-10
-4.48211e-09
1.16703e-10
-4.50032e-09
1.09009e-10
-4.51727e-09
1.01472e-10
-4.53297e-09
9.40913e-11
-4.54745e-09
8.6867e-11
-4.56074e-09
7.97976e-11
-4.57287e-09
7.28823e-11
-4.58386e-09
6.61199e-11
-4.59373e-09
5.95094e-11
-4.60251e-09
5.30493e-11
-4.61023e-09
4.67384e-11
-4.61692e-09
4.05752e-11
-4.62259e-09
3.45584e-11
-4.62727e-09
2.86863e-11
-4.63098e-09
2.29574e-11
-4.63376e-09
1.73701e-11
-4.63562e-09
1.19225e-11
-4.63659e-09
6.61312e-12
1.44003e-12
-4.63668e-09
-1.5017e-10
9.01184e-10
-2.98917e-10
8.92646e-10
-4.46146e-10
8.83547e-10
-5.91768e-10
8.73921e-10
-7.35701e-10
8.638e-10
-8.77865e-10
8.53216e-10
-1.01819e-09
8.422e-10
-1.15661e-09
8.30784e-10
-1.29305e-09
8.18996e-10
-1.42747e-09
8.06864e-10
-1.55981e-09
7.94417e-10
-1.69002e-09
7.81682e-10
-1.81805e-09
7.68683e-10
-1.94387e-09
7.55446e-10
-2.06745e-09
7.41995e-10
-2.18874e-09
7.28354e-10
-2.30772e-09
7.14544e-10
-2.42437e-09
7.00587e-10
-2.53866e-09
6.86503e-10
-2.65057e-09
6.72313e-10
-2.76011e-09
6.58035e-10
-2.86724e-09
6.43687e-10
-2.97196e-09
6.29287e-10
-3.07427e-09
6.14852e-10
-3.17416e-09
6.00397e-10
-3.27163e-09
5.85936e-10
-3.36669e-09
5.71486e-10
-3.45934e-09
5.57058e-10
-3.54958e-09
5.42666e-10
-3.63742e-09
5.28323e-10
-3.72288e-09
5.14039e-10
-3.80596e-09
4.99827e-10
-3.88668e-09
4.85695e-10
-3.96505e-09
4.71655e-10
-4.04109e-09
4.57714e-10
-4.11483e-09
4.43882e-10
-4.18627e-09
4.30167e-10
-4.25544e-09
4.16576e-10
-4.32236e-09
4.03117e-10
-4.38706e-09
3.89795e-10
-4.44956e-09
3.76617e-10
-4.50989e-09
3.63589e-10
-4.56807e-09
3.50715e-10
-4.62412e-09
3.38e-10
-4.67808e-09
3.2545e-10
-4.72998e-09
3.13067e-10
-4.77983e-09
3.00855e-10
-4.82768e-09
2.88818e-10
-4.87356e-09
2.76958e-10
-4.91748e-09
2.65279e-10
-4.95949e-09
2.53781e-10
-4.99961e-09
2.42468e-10
-5.03788e-09
2.31341e-10
-5.07432e-09
2.20401e-10
-5.10897e-09
2.09649e-10
-5.14187e-09
1.99086e-10
-5.17303e-09
1.88714e-10
-5.2025e-09
1.78532e-10
-5.23031e-09
1.68541e-10
-5.25648e-09
1.5874e-10
-5.28106e-09
1.4913e-10
-5.30407e-09
1.3971e-10
-5.32554e-09
1.3048e-10
-5.3455e-09
1.21439e-10
-5.364e-09
1.12586e-10
-5.38105e-09
1.0392e-10
-5.39669e-09
9.54407e-11
-5.41096e-09
8.71463e-11
-5.42387e-09
7.90357e-11
-5.43547e-09
7.11074e-11
-5.44578e-09
6.33598e-11
-5.45484e-09
5.57915e-11
-5.46266e-09
4.84005e-11
-5.46929e-09
4.11853e-11
-5.47475e-09
3.4144e-11
-5.47906e-09
2.72745e-11
-5.48227e-09
2.0575e-11
-5.48439e-09
1.40434e-11
-5.48545e-09
7.67762e-12
1.47552e-12
-5.48549e-09
-1.78258e-10
1.07944e-09
-3.54826e-10
1.06921e-09
-5.29591e-10
1.05831e-09
-7.02448e-10
1.04678e-09
-8.73296e-10
1.03465e-09
-1.04204e-09
1.02196e-09
-1.20861e-09
1.00876e-09
-1.3729e-09
9.95078e-10
-1.53485e-09
9.80948e-10
-1.69439e-09
9.66406e-10
-1.85146e-09
9.51486e-10
-2.006e-09
9.36219e-10
-2.15795e-09
9.20636e-10
-2.30727e-09
9.04768e-10
-2.45392e-09
8.88642e-10
-2.59786e-09
8.72288e-10
-2.73905e-09
8.55732e-10
-2.87746e-09
8.39e-10
-3.01307e-09
8.22116e-10
-3.14586e-09
8.05104e-10
-3.27582e-09
7.87987e-10
-3.40291e-09
7.70787e-10
-3.52715e-09
7.53524e-10
-3.64852e-09
7.36219e-10
-3.76701e-09
7.1889e-10
-3.88263e-09
7.01555e-10
-3.99538e-09
6.84232e-10
-4.10526e-09
6.66937e-10
-4.21228e-09
6.49686e-10
-4.31645e-09
6.32493e-10
-4.41778e-09
6.15372e-10
-4.51629e-09
5.98336e-10
-4.61199e-09
5.81398e-10
-4.7049e-09
5.64569e-10
-4.79505e-09
5.47861e-10
-4.88245e-09
5.31283e-10
-4.96713e-09
5.14845e-10
-5.04911e-09
4.98557e-10
-5.12842e-09
4.82427e-10
-5.20509e-09
4.66463e-10
-5.27914e-09
4.50671e-10
-5.35061e-09
4.35059e-10
-5.41953e-09
4.19633e-10
-5.48593e-09
4.04398e-10
-5.54984e-09
3.8936e-10
-5.6113e-09
3.74524e-10
-5.67033e-09
3.59893e-10
-5.72699e-09
3.45471e-10
-5.78129e-09
3.31263e-10
-5.83328e-09
3.17271e-10
-5.883e-09
3.03498e-10
-5.93048e-09
2.89946e-10
-5.97575e-09
2.76617e-10
-6.01887e-09
2.63513e-10
-6.05985e-09
2.50635e-10
-6.09875e-09
2.37984e-10
-6.1356e-09
2.25561e-10
-6.17043e-09
2.13367e-10
-6.20329e-09
2.01401e-10
-6.23422e-09
1.89665e-10
-6.26324e-09
1.78157e-10
-6.29041e-09
1.66877e-10
-6.31576e-09
1.55824e-10
-6.33932e-09
1.44999e-10
-6.36113e-09
1.34399e-10
-6.38123e-09
1.24024e-10
-6.39967e-09
1.13873e-10
-6.41646e-09
1.03943e-10
-6.43166e-09
9.42339e-11
-6.4453e-09
8.47432e-11
-6.45741e-09
7.54693e-11
-6.46803e-09
6.64102e-11
-6.47719e-09
5.75639e-11
-6.48493e-09
4.89283e-11
-6.49129e-09
4.05011e-11
-6.49629e-09
3.228e-11
-6.49998e-09
2.42626e-11
-6.50238e-09
1.64464e-11
-6.50354e-09
8.82907e-12
1.40788e-12
-6.50347e-09
-2.11967e-10
1.29141e-09
-4.21924e-10
1.27917e-09
-6.29736e-10
1.26612e-09
-8.35276e-10
1.25232e-09
-1.03843e-09
1.2378e-09
-1.23908e-09
1.22261e-09
-1.43712e-09
1.20681e-09
-1.63247e-09
1.19042e-09
-1.82503e-09
1.17351e-09
-2.01471e-09
1.15609e-09
-2.20145e-09
1.13823e-09
-2.38518e-09
1.11994e-09
-2.56582e-09
1.10128e-09
-2.74333e-09
1.08228e-09
-2.91766e-09
1.06297e-09
-3.08875e-09
1.04338e-09
-3.25658e-09
1.02355e-09
-3.42109e-09
1.00352e-09
-3.58227e-09
9.83296e-10
-3.74009e-09
9.62922e-10
-3.89453e-09
9.42423e-10
-4.04556e-09
9.21824e-10
-4.19319e-09
9.01151e-10
-4.3374e-09
8.80427e-10
-4.47818e-09
8.59674e-10
-4.61554e-09
8.38916e-10
-4.74948e-09
8.18172e-10
-4.88001e-09
7.97462e-10
-5.00713e-09
7.76804e-10
-5.13085e-09
7.56216e-10
-5.25119e-09
7.35716e-10
-5.36818e-09
7.15318e-10
-5.48182e-09
6.95038e-10
-5.59214e-09
6.74889e-10
-5.69916e-09
6.54885e-10
-5.80291e-09
6.35038e-10
-5.90343e-09
6.15359e-10
-6.00073e-09
5.9586e-10
-6.09485e-09
5.76551e-10
-6.18583e-09
5.57441e-10
-6.2737e-09
5.38538e-10
-6.35849e-09
5.19851e-10
-6.44025e-09
5.01387e-10
-6.519e-09
4.83153e-10
-6.5948e-09
4.65155e-10
-6.66767e-09
4.47399e-10
-6.73767e-09
4.2989e-10
-6.80483e-09
4.12632e-10
-6.8692e-09
3.95631e-10
-6.93081e-09
3.78888e-10
-6.98972e-09
3.62408e-10
-7.04597e-09
3.46193e-10
-7.0996e-09
3.30246e-10
-7.15066e-09
3.14568e-10
-7.19918e-09
2.99162e-10
-7.24523e-09
2.84029e-10
-7.28884e-09
2.69168e-10
-7.33005e-09
2.54582e-10
-7.36892e-09
2.4027e-10
-7.40549e-09
2.26232e-10
-7.4398e-09
2.12469e-10
-7.4719e-09
1.98979e-10
-7.50184e-09
1.85762e-10
-7.52966e-09
1.72816e-10
-7.5554e-09
1.60142e-10
-7.57911e-09
1.47736e-10
-7.60084e-09
1.35598e-10
-7.62062e-09
1.23726e-10
-7.6385e-09
1.12119e-10
-7.65453e-09
1.00773e-10
-7.66875e-09
8.96864e-11
-7.6812e-09
7.88575e-11
-7.69192e-09
6.82835e-11
-7.70095e-09
5.79618e-11
-7.70834e-09
4.78897e-11
-7.71412e-09
3.80645e-11
-7.71834e-09
2.84832e-11
-7.72104e-09
1.91429e-11
-7.72225e-09
1.00405e-11
1.1731e-12
-7.72202e-09
-2.5239e-10
1.5438e-09
-5.02384e-10
1.52917e-09
-7.49823e-10
1.51356e-09
-9.94554e-10
1.49705e-09
-1.23644e-09
1.47968e-09
-1.47534e-09
1.46151e-09
-1.71113e-09
1.4426e-09
-1.94371e-09
1.423e-09
-2.17296e-09
1.40275e-09
-2.39878e-09
1.38192e-09
-2.62109e-09
1.36053e-09
-2.8398e-09
1.33865e-09
-3.05484e-09
1.31632e-09
-3.26613e-09
1.29358e-09
-3.47363e-09
1.27046e-09
-3.67726e-09
1.24702e-09
-3.877e-09
1.22329e-09
-4.07279e-09
1.1993e-09
-4.26459e-09
1.1751e-09
-4.45239e-09
1.15072e-09
-4.63615e-09
1.12618e-09
-4.81585e-09
1.10153e-09
-4.99148e-09
1.07678e-09
-5.16304e-09
1.05198e-09
-5.33051e-09
1.02714e-09
-5.49389e-09
1.0023e-09
-5.65319e-09
9.77473e-10
-5.80842e-09
9.52688e-10
-5.95958e-09
9.27967e-10
-6.10669e-09
9.0333e-10
-6.24978e-09
8.78798e-10
-6.38885e-09
8.5439e-10
-6.52393e-09
8.30123e-10
-6.65506e-09
8.06014e-10
-6.78225e-09
7.8208e-10
-6.90555e-09
7.58334e-10
-7.02498e-09
7.34791e-10
-7.14059e-09
7.11463e-10
-7.2524e-09
6.88364e-10
-7.36046e-09
6.65503e-10
-7.46481e-09
6.42892e-10
-7.5655e-09
6.20539e-10
-7.66257e-09
5.98455e-10
-7.75606e-09
5.76646e-10
-7.84603e-09
5.55121e-10
-7.93252e-09
5.33887e-10
-8.01558e-09
5.12948e-10
-8.09525e-09
4.92311e-10
-8.17161e-09
4.71981e-10
-8.24468e-09
4.51962e-10
-8.31453e-09
4.32258e-10
-8.38121e-09
4.12873e-10
-8.44477e-09
3.93808e-10
-8.50527e-09
3.75066e-10
-8.56276e-09
3.5665e-10
-8.61729e-09
3.3856e-10
-8.66892e-09
3.20799e-10
-8.7177e-09
3.03365e-10
-8.76369e-09
2.86261e-10
-8.80695e-09
2.69485e-10
-8.84751e-09
2.53038e-10
-8.88545e-09
2.36918e-10
-8.92082e-09
2.21126e-10