/*--------------------------------*- C++ -*----------------------------------*\
  =========                 |
  \\      /  F ield         | OpenFOAM: The Open Source CFD Toolbox
   \\    /   O peration     | Website:  https://openfoam.org
    \\  /    A nd           | Version:  8
     \\/     M anipulation  |
\*---------------------------------------------------------------------------*/
FoamFile
{
    version     2.0;
    format      ascii;
    class       surfaceScalarField;
    location    "1000";
    object      phib;
}
// * * * * * * * * * * * * * * * * * * * * * * * * * * * * * * * * * * * * * //

dimensions      [0 3 -1 0 0 0 0];

internalField   nonuniform List<scalar> 
25360
(
-6.96285e-22
-4.26904e-14
-1.38598e-21
-4.23175e-14
-2.06865e-21
-4.19478e-14
-2.74389e-21
-4.15813e-14
-3.41133e-21
-4.12181e-14
-4.07061e-21
-4.0858e-14
-4.7214e-21
-4.05011e-14
-5.36339e-21
-4.01473e-14
-5.9963e-21
-3.97966e-14
-6.61986e-21
-3.9449e-14
-7.23384e-21
-3.91043e-14
-7.83801e-21
-3.87627e-14
-8.43217e-21
-3.84241e-14
-9.01614e-21
-3.80885e-14
-9.58975e-21
-3.77557e-14
-1.01529e-20
-3.74259e-14
-1.07053e-20
-3.7099e-14
-1.12471e-20
-3.67749e-14
-1.17779e-20
-3.64536e-14
-1.22979e-20
-3.61352e-14
-1.28069e-20
-3.58195e-14
-1.33048e-20
-3.55066e-14
-1.37916e-20
-3.51965e-14
-1.42673e-20
-3.4889e-14
-1.47319e-20
-3.45842e-14
-1.51854e-20
-3.42821e-14
-1.56277e-20
-3.39826e-14
-1.60589e-20
-3.36858e-14
-1.6479e-20
-3.33915e-14
-1.68881e-20
-3.30998e-14
-1.72862e-20
-3.28106e-14
-1.76733e-20
-3.2524e-14
-1.80495e-20
-3.22399e-14
-1.84149e-20
-3.19583e-14
-1.87696e-20
-3.16791e-14
-1.91136e-20
-3.14024e-14
-1.9447e-20
-3.1128e-14
-1.97699e-20
-3.08561e-14
-2.00825e-20
-3.05866e-14
-2.03848e-20
-3.03194e-14
-2.0677e-20
-3.00545e-14
-2.0959e-20
-2.9792e-14
-2.12312e-20
-2.95317e-14
-2.14935e-20
-2.92737e-14
-2.17462e-20
-2.9018e-14
-2.19893e-20
-2.87645e-14
-2.2223e-20
-2.85133e-14
-2.24474e-20
-2.82642e-14
-2.26626e-20
-2.80173e-14
-2.28688e-20
-2.77725e-14
-2.30661e-20
-2.75299e-14
-2.32547e-20
-2.72894e-14
-2.34347e-20
-2.7051e-14
-2.36063e-20
-2.68147e-14
-2.37695e-20
-2.65805e-14
-2.39246e-20
-2.63483e-14
-2.40716e-20
-2.61181e-14
-2.42108e-20
-2.58899e-14
-2.43423e-20
-2.56638e-14
-2.44662e-20
-2.54396e-14
-2.45826e-20
-2.52174e-14
-2.46917e-20
-2.49971e-14
-2.47938e-20
-2.47787e-14
-2.48888e-20
-2.45622e-14
-2.49769e-20
-2.43477e-14
-2.50584e-20
-2.4135e-14
-2.51333e-20
-2.39242e-14
-2.52018e-20
-2.37152e-14
-2.52639e-20
-2.3508e-14
-2.532e-20
-2.33026e-14
-2.537e-20
-2.30991e-14
-2.54142e-20
-2.28973e-14
-2.54527e-20
-2.26973e-14
-2.54855e-20
-2.2499e-14
-2.55129e-20
-2.23024e-14
-2.5535e-20
-2.21076e-14
-2.55519e-20
-2.19145e-14
-2.55637e-20
-2.17231e-14
-2.55706e-20
-2.15333e-14
-2.13452e-14
-2.55718e-20
-7.1778e-22
-4.26904e-14
-1.42877e-21
-4.23175e-14
-2.13251e-21
-4.19478e-14
-2.8286e-21
-4.15813e-14
-3.51665e-21
-4.12181e-14
-4.19628e-21
-4.0858e-14
-4.86715e-21
-4.05011e-14
-5.52896e-21
-4.01473e-14
-6.18141e-21
-3.97966e-14
-6.82422e-21
-3.9449e-14
-7.45715e-21
-3.91043e-14
-8.07996e-21
-3.87627e-14
-8.69246e-21
-3.84241e-14
-9.29445e-21
-3.80885e-14
-9.88575e-21
-3.77557e-14
-1.04662e-20
-3.74259e-14
-1.10358e-20
-3.7099e-14
-1.15942e-20
-3.67749e-14
-1.21415e-20
-3.64536e-14
-1.26775e-20
-3.61352e-14
-1.32021e-20
-3.58195e-14
-1.37154e-20
-3.55066e-14
-1.42172e-20
-3.51965e-14
-1.47076e-20
-3.4889e-14
-1.51865e-20
-3.45842e-14
-1.56539e-20
-3.42821e-14
-1.61099e-20
-3.39826e-14
-1.65544e-20
-3.36858e-14
-1.69875e-20
-3.33915e-14
-1.74091e-20
-3.30998e-14
-1.78195e-20
-3.28106e-14
-1.82185e-20
-3.2524e-14
-1.86063e-20
-3.22399e-14
-1.8983e-20
-3.19583e-14
-1.93486e-20
-3.16791e-14
-1.97031e-20
-3.14024e-14
-2.00468e-20
-3.1128e-14
-2.03797e-20
-3.08561e-14
-2.07019e-20
-3.05866e-14
-2.10135e-20
-3.03194e-14
-2.13146e-20
-3.00545e-14
-2.16054e-20
-2.9792e-14
-2.18859e-20
-2.95317e-14
-2.21563e-20
-2.92737e-14
-2.24167e-20
-2.9018e-14
-2.26673e-20
-2.87645e-14
-2.29082e-20
-2.85133e-14
-2.31394e-20
-2.82642e-14
-2.33613e-20
-2.80173e-14
-2.35738e-20
-2.77725e-14
-2.37772e-20
-2.75299e-14
-2.39716e-20
-2.72894e-14
-2.41571e-20
-2.7051e-14
-2.43339e-20
-2.68147e-14
-2.45021e-20
-2.65805e-14
-2.4662e-20
-2.63483e-14
-2.48135e-20
-2.61181e-14
-2.49569e-20
-2.58899e-14
-2.50924e-20
-2.56638e-14
-2.52201e-20
-2.54396e-14
-2.53401e-20
-2.52174e-14
-2.54526e-20
-2.49971e-14
-2.55577e-20
-2.47787e-14
-2.56556e-20
-2.45622e-14
-2.57465e-20
-2.43477e-14
-2.58304e-20
-2.4135e-14
-2.59076e-20
-2.39242e-14
-2.59781e-20
-2.37152e-14
-2.60422e-20
-2.3508e-14
-2.60999e-20
-2.33026e-14
-2.61515e-20
-2.30991e-14
-2.6197e-20
-2.28973e-14
-2.62366e-20
-2.26973e-14
-2.62704e-20
-2.2499e-14
-2.62987e-20
-2.23024e-14
-2.63214e-20
-2.21076e-14
-2.63387e-20
-2.19145e-14
-2.63509e-20
-2.17231e-14
-2.63579e-20
-2.15333e-14
-2.13452e-14
-2.636e-20
-7.61511e-22
-4.26904e-14
-1.51581e-21
-4.23175e-14
-2.26243e-21
-4.19478e-14
-3.00093e-21
-4.15813e-14
-3.73089e-21
-4.12181e-14
-4.45192e-21
-4.0858e-14
-5.16366e-21
-4.05011e-14
-5.86579e-21
-4.01473e-14
-6.55797e-21
-3.97966e-14
-7.23994e-21
-3.94489e-14
-7.91141e-21
-3.91043e-14
-8.57216e-21
-3.87627e-14
-9.22195e-21
-3.84241e-14
-9.8606e-21
-3.80885e-14
-1.04879e-20
-3.77557e-14
-1.11037e-20
-3.74259e-14
-1.17079e-20
-3.7099e-14
-1.23004e-20
-3.67749e-14
-1.28809e-20
-3.64536e-14
-1.34495e-20
-3.61352e-14
-1.40061e-20
-3.58195e-14
-1.45506e-20
-3.55066e-14
-1.5083e-20
-3.51965e-14
-1.56032e-20
-3.4889e-14
-1.61113e-20
-3.45842e-14
-1.66071e-20
-3.42821e-14
-1.70908e-20
-3.39826e-14
-1.75623e-20
-3.36858e-14
-1.80217e-20
-3.33915e-14
-1.8469e-20
-3.30998e-14
-1.89043e-20
-3.28106e-14
-1.93276e-20
-3.2524e-14
-1.9739e-20
-3.22399e-14
-2.01385e-20
-3.19583e-14
-2.05263e-20
-3.16791e-14
-2.09024e-20
-3.14024e-14
-2.1267e-20
-3.1128e-14
-2.16201e-20
-3.08561e-14
-2.19618e-20
-3.05866e-14
-2.22924e-20
-3.03194e-14
-2.26117e-20
-3.00545e-14
-2.29201e-20
-2.9792e-14
-2.32177e-20
-2.95317e-14
-2.35045e-20
-2.92737e-14
-2.37807e-20
-2.9018e-14
-2.40465e-20
-2.87645e-14
-2.43019e-20
-2.85133e-14
-2.45472e-20
-2.82642e-14
-2.47825e-20
-2.80173e-14
-2.50079e-20
-2.77725e-14
-2.52236e-20
-2.75299e-14
-2.54297e-20
-2.72894e-14
-2.56264e-20
-2.7051e-14
-2.58139e-20
-2.68147e-14
-2.59923e-20
-2.65805e-14
-2.61618e-20
-2.63483e-14
-2.63225e-20
-2.61181e-14
-2.64746e-20
-2.58899e-14
-2.66183e-20
-2.56638e-14
-2.67536e-20
-2.54396e-14
-2.68809e-20
-2.52174e-14
-2.70001e-20
-2.49971e-14
-2.71116e-20
-2.47787e-14
-2.72154e-20
-2.45622e-14
-2.73117e-20
-2.43477e-14
-2.74007e-20
-2.4135e-14
-2.74825e-20
-2.39242e-14
-2.75572e-20
-2.37152e-14
-2.76251e-20
-2.3508e-14
-2.76863e-20
-2.33026e-14
-2.7741e-20
-2.30991e-14
-2.77892e-20
-2.28973e-14
-2.78311e-20
-2.26973e-14
-2.7867e-20
-2.2499e-14
-2.78968e-20
-2.23024e-14
-2.79209e-20
-2.21076e-14
-2.79392e-20
-2.19145e-14
-2.7952e-20
-2.17231e-14
-2.79595e-20
-2.15333e-14
-2.13452e-14
-2.79616e-20
-8.28805e-22
-4.26904e-14
-1.64976e-21
-4.23174e-14
-2.46236e-21
-4.19478e-14
-3.26611e-21
-4.15813e-14
-4.06057e-21
-4.12181e-14
-4.84531e-21
-4.0858e-14
-5.61995e-21
-4.05011e-14
-6.3841e-21
-4.01473e-14
-7.13745e-21
-3.97966e-14
-7.87966e-21
-3.94489e-14
-8.61045e-21
-3.91043e-14
-9.32956e-21
-3.87627e-14
-1.00368e-20
-3.84241e-14
-1.07318e-20
-3.80885e-14
-1.14145e-20
-3.77557e-14
-1.20847e-20
-3.74259e-14
-1.27423e-20
-3.7099e-14
-1.3387e-20
-3.67749e-14
-1.40188e-20
-3.64536e-14
-1.46377e-20
-3.61352e-14
-1.52434e-20
-3.58195e-14
-1.58359e-20
-3.55066e-14
-1.64153e-20
-3.51964e-14
-1.69814e-20
-3.4889e-14
-1.75343e-20
-3.45842e-14
-1.80739e-20
-3.42821e-14
-1.86002e-20
-3.39826e-14
-1.91133e-20
-3.36858e-14
-1.96132e-20
-3.33915e-14
-2.01e-20
-3.30998e-14
-2.05736e-20
-3.28106e-14
-2.10342e-20
-3.2524e-14
-2.14819e-20
-3.22399e-14
-2.19166e-20
-3.19583e-14
-2.23385e-20
-3.16791e-14
-2.27478e-20
-3.14024e-14
-2.31445e-20
-3.1128e-14
-2.35287e-20
-3.08561e-14
-2.39005e-20
-3.05866e-14
-2.42601e-20
-3.03194e-14
-2.46076e-20
-3.00545e-14
-2.49431e-20
-2.9792e-14
-2.52668e-20
-2.95317e-14
-2.55789e-20
-2.92737e-14
-2.58794e-20
-2.9018e-14
-2.61685e-20
-2.87645e-14
-2.64464e-20
-2.85133e-14
-2.67132e-20
-2.82642e-14
-2.69691e-20
-2.80173e-14
-2.72143e-20
-2.77725e-14
-2.7449e-20
-2.75299e-14
-2.76732e-20
-2.72894e-14
-2.78872e-20
-2.7051e-14
-2.80911e-20
-2.68147e-14
-2.82852e-20
-2.65805e-14
-2.84695e-20
-2.63483e-14
-2.86443e-20
-2.61181e-14
-2.88097e-20
-2.58899e-14
-2.89659e-20
-2.56638e-14
-2.91131e-20
-2.54396e-14
-2.92514e-20
-2.52174e-14
-2.93811e-20
-2.49971e-14
-2.95023e-20
-2.47787e-14
-2.96151e-20
-2.45622e-14
-2.97198e-20
-2.43477e-14
-2.98166e-20
-2.4135e-14
-2.99055e-20
-2.39242e-14
-2.99867e-20
-2.37152e-14
-3.00605e-20
-2.3508e-14
-3.0127e-20
-2.33026e-14
-3.01863e-20
-2.30991e-14
-3.02387e-20
-2.28973e-14
-3.02842e-20
-2.26973e-14
-3.03231e-20
-2.2499e-14
-3.03555e-20
-2.23024e-14
-3.03816e-20
-2.21076e-14
-3.04015e-20
-2.19145e-14
-3.04153e-20
-2.17231e-14
-3.04233e-20
-2.15333e-14
-2.13452e-14
-3.04256e-20
-9.21762e-22
-4.26904e-14
-1.83479e-21
-4.23174e-14
-2.73853e-21
-4.19478e-14
-3.63242e-21
-4.15813e-14
-4.51598e-21
-4.12181e-14
-5.38873e-21
-4.0858e-14
-6.25024e-21
-4.05011e-14
-7.10009e-21
-4.01473e-14
-7.9379e-21
-3.97966e-14
-8.76334e-21
-3.94489e-14
-9.57607e-21
-3.91043e-14
-1.03758e-20
-3.87627e-14
-1.11623e-20
-3.84241e-14
-1.19352e-20
-3.80885e-14
-1.26945e-20
-3.77557e-14
-1.34398e-20
-3.74259e-14
-1.4171e-20
-3.7099e-14
-1.4888e-20
-3.67749e-14
-1.55906e-20
-3.64536e-14
-1.62788e-20
-3.61352e-14
-1.69524e-20
-3.58195e-14
-1.76113e-20
-3.55066e-14
-1.82555e-20
-3.51964e-14
-1.88851e-20
-3.4889e-14
-1.94998e-20
-3.45842e-14
-2.00998e-20
-3.42821e-14
-2.06851e-20
-3.39826e-14
-2.12556e-20
-3.36858e-14
-2.18115e-20
-3.33915e-14
-2.23527e-20
-3.30998e-14
-2.28793e-20
-3.28106e-14
-2.33914e-20
-3.2524e-14
-2.38891e-20
-3.22399e-14
-2.43725e-20
-3.19583e-14
-2.48416e-20
-3.16791e-14
-2.52966e-20
-3.14024e-14
-2.57376e-20
-3.1128e-14
-2.61647e-20
-3.08561e-14
-2.65781e-20
-3.05866e-14
-2.69779e-20
-3.03194e-14
-2.73641e-20
-3.00545e-14
-2.77371e-20
-2.9792e-14
-2.8097e-20
-2.95317e-14
-2.84438e-20
-2.92737e-14
-2.87778e-20
-2.9018e-14
-2.90992e-20
-2.87645e-14
-2.94081e-20
-2.85132e-14
-2.97047e-20
-2.82642e-14
-2.99891e-20
-2.80173e-14
-3.02616e-20
-2.77725e-14
-3.05224e-20
-2.75299e-14
-3.07716e-20
-2.72894e-14
-3.10094e-20
-2.7051e-14
-3.1236e-20
-2.68147e-14
-3.14516e-20
-2.65805e-14
-3.16564e-20
-2.63483e-14
-3.18506e-20
-2.61181e-14
-3.20344e-20
-2.58899e-14
-3.22079e-20
-2.56638e-14
-3.23714e-20
-2.54396e-14
-3.25251e-20
-2.52174e-14
-3.26692e-20
-2.49971e-14
-3.28038e-20
-2.47787e-14
-3.29291e-20
-2.45622e-14
-3.30454e-20
-2.43477e-14
-3.31527e-20
-2.4135e-14
-3.32514e-20
-2.39242e-14
-3.33416e-20
-2.37152e-14
-3.34235e-20
-2.3508e-14
-3.34973e-20
-2.33026e-14
-3.35631e-20
-2.30991e-14
-3.36212e-20
-2.28973e-14
-3.36717e-20
-2.26973e-14
-3.37148e-20
-2.2499e-14
-3.37507e-20
-2.23024e-14
-3.37795e-20
-2.21076e-14
-3.38015e-20
-2.19145e-14
-3.38168e-20
-2.17231e-14
-3.38255e-20
-2.15333e-14
-2.13452e-14
-3.38279e-20
-1.04329e-21
-4.26904e-14
-2.07669e-21
-4.23174e-14
-3.09957e-21
-4.19478e-14
-4.11131e-21
-4.15813e-14
-5.11135e-21
-4.12181e-14
-6.09915e-21
-4.0858e-14
-7.07422e-21
-4.05011e-14
-8.03609e-21
-4.01473e-14
-8.98434e-21
-3.97966e-14
-9.91857e-21
-3.94489e-14
-1.08384e-20
-3.91043e-14
-1.17435e-20
-3.87627e-14
-1.26336e-20
-3.84241e-14
-1.35085e-20
-3.80885e-14
-1.43677e-20
-3.77557e-14
-1.52112e-20
-3.74259e-14
-1.60388e-20
-3.7099e-14
-1.68502e-20
-3.67749e-14
-1.76454e-20
-3.64536e-14
-1.84241e-20
-3.61352e-14
-1.91864e-20
-3.58195e-14
-1.99321e-20
-3.55066e-14
-2.06611e-20
-3.51964e-14
-2.13735e-20
-3.4889e-14
-2.20692e-20
-3.45842e-14
-2.27481e-20
-3.42821e-14
-2.34104e-20
-3.39826e-14
-2.4056e-20
-3.36858e-14
-2.46849e-20
-3.33915e-14
-2.52973e-20
-3.30998e-14
-2.58932e-20
-3.28106e-14
-2.64726e-20
-3.2524e-14
-2.70357e-20
-3.22399e-14
-2.75826e-20
-3.19583e-14
-2.81134e-20
-3.16791e-14
-2.86281e-20
-3.14024e-14
-2.9127e-20
-3.1128e-14
-2.96102e-20
-3.08561e-14
-3.00779e-20
-3.05866e-14
-3.05301e-20
-3.03194e-14
-3.09671e-20
-3.00545e-14
-3.1389e-20
-2.9792e-14
-3.1796e-20
-2.95317e-14
-3.21883e-20
-2.92737e-14
-3.25661e-20
-2.9018e-14
-3.29296e-20
-2.87645e-14
-3.3279e-20
-2.85132e-14
-3.36144e-20
-2.82642e-14
-3.39361e-20
-2.80173e-14
-3.42443e-20
-2.77725e-14
-3.45391e-20
-2.75299e-14
-3.48209e-20
-2.72894e-14
-3.50898e-20
-2.7051e-14
-3.5346e-20
-2.68147e-14
-3.55898e-20
-2.65805e-14
-3.58213e-20
-2.63483e-14
-3.60409e-20
-2.61181e-14
-3.62486e-20
-2.58899e-14
-3.64448e-20
-2.56638e-14
-3.66296e-20
-2.54396e-14
-3.68033e-20
-2.52174e-14
-3.69661e-20
-2.49971e-14
-3.71181e-20
-2.47787e-14
-3.72597e-20
-2.45622e-14
-3.73911e-20
-2.43477e-14
-3.75124e-20
-2.4135e-14
-3.76239e-20
-2.39242e-14
-3.77257e-20
-2.37152e-14
-3.78182e-20
-2.3508e-14
-3.79014e-20
-2.33026e-14
-3.79757e-20
-2.30991e-14
-3.80412e-20
-2.28973e-14
-3.80981e-20
-2.26973e-14
-3.81467e-20
-2.2499e-14
-3.81871e-20
-2.23024e-14
-3.82195e-20
-2.21076e-14
-3.82442e-20
-2.19145e-14
-3.82612e-20
-2.17231e-14
-3.82709e-20
-2.15333e-14
-2.13452e-14
-3.82734e-20
-1.19718e-21
-4.26904e-14
-2.38302e-21
-4.23174e-14
-3.55678e-21
-4.19478e-14
-4.71776e-21
-4.15813e-14
-5.86531e-21
-4.12181e-14
-6.9988e-21
-4.0858e-14
-8.11768e-21
-4.05011e-14
-9.22141e-21
-4.01473e-14
-1.03095e-20
-3.97966e-14
-1.13815e-20
-3.94489e-14
-1.2437e-20
-3.91043e-14
-1.34755e-20
-3.87627e-14
-1.44969e-20
-3.84241e-14
-1.55006e-20
-3.80885e-14
-1.64866e-20
-3.77557e-14
-1.74544e-20
-3.74259e-14
-1.84039e-20
-3.7099e-14
-1.93349e-20
-3.67749e-14
-2.02472e-20
-3.64536e-14
-2.11407e-20
-3.61352e-14
-2.20153e-20
-3.58195e-14
-2.28708e-20
-3.55066e-14
-2.37072e-20
-3.51964e-14
-2.45244e-20
-3.4889e-14
-2.53225e-20
-3.45842e-14
-2.61014e-20
-3.42821e-14
-2.68611e-20
-3.39826e-14
-2.76017e-20
-3.36858e-14
-2.83232e-20
-3.33915e-14
-2.90257e-20
-3.30998e-14
-2.97092e-20
-3.28106e-14
-3.03738e-20
-3.2524e-14
-3.10197e-20
-3.22399e-14
-3.1647e-20
-3.19583e-14
-3.22557e-20
-3.16791e-14
-3.28461e-20
-3.14024e-14
-3.34183e-20
-3.1128e-14
-3.39725e-20
-3.08561e-14
-3.45087e-20
-3.05866e-14
-3.50274e-20
-3.03194e-14
-3.55285e-20
-3.00545e-14
-3.60123e-20
-2.9792e-14
-3.6479e-20
-2.95317e-14
-3.69288e-20
-2.92737e-14
-3.7362e-20
-2.9018e-14
-3.77788e-20
-2.87645e-14
-3.81793e-20
-2.85132e-14
-3.85638e-20
-2.82642e-14
-3.89326e-20
-2.80173e-14
-3.92859e-20
-2.77725e-14
-3.96239e-20
-2.75299e-14
-3.99468e-20
-2.72894e-14
-4.0255e-20
-2.7051e-14
-4.05487e-20
-2.68147e-14
-4.0828e-20
-2.65805e-14
-4.10934e-20
-2.63483e-14
-4.13449e-20
-2.61181e-14
-4.1583e-20
-2.58899e-14
-4.18077e-20
-2.56638e-14
-4.20194e-20
-2.54396e-14
-4.22184e-20
-2.52174e-14
-4.24048e-20
-2.49971e-14
-4.2579e-20
-2.47787e-14
-4.27411e-20
-2.45622e-14
-4.28915e-20
-2.43477e-14
-4.30303e-20
-2.4135e-14
-4.31579e-20
-2.39242e-14
-4.32745e-20
-2.37152e-14
-4.33802e-20
-2.3508e-14
-4.34754e-20
-2.33026e-14
-4.35604e-20
-2.30991e-14
-4.36352e-20
-2.28973e-14
-4.37002e-20
-2.26973e-14
-4.37556e-20
-2.2499e-14
-4.38017e-20
-2.23024e-14
-4.38386e-20
-2.21076e-14
-4.38666e-20
-2.19145e-14
-4.38859e-20
-2.17231e-14
-4.38968e-20
-2.15333e-14
-2.13452e-14
-4.38993e-20
-1.38827e-21
-4.26904e-14
-2.76339e-21
-4.23174e-14
-4.1245e-21
-4.19478e-14
-5.47078e-21
-4.15813e-14
-6.80148e-21
-4.12181e-14
-8.11587e-21
-4.0858e-14
-9.41331e-21
-4.05011e-14
-1.06932e-20
-4.01473e-14
-1.19549e-20
-3.97966e-14
-1.31979e-20
-3.94489e-14
-1.44218e-20
-3.91043e-14
-1.56261e-20
-3.87627e-14
-1.68103e-20
-3.84241e-14
-1.79742e-20
-3.80885e-14
-1.91174e-20
-3.77557e-14
-2.02395e-20
-3.74259e-14
-2.13404e-20
-3.7099e-14
-2.24199e-20
-3.67749e-14
-2.34776e-20
-3.64536e-14
-2.45135e-20
-3.61352e-14
-2.55274e-20
-3.58195e-14
-2.65193e-20
-3.55066e-14
-2.74889e-20
-3.51964e-14
-2.84364e-20
-3.4889e-14
-2.93616e-20
-3.45842e-14
-3.02645e-20
-3.42821e-14
-3.11452e-20
-3.39826e-14
-3.20036e-20
-3.36858e-14
-3.28399e-20
-3.33915e-14
-3.36542e-20
-3.30998e-14
-3.44464e-20
-3.28106e-14
-3.52168e-20
-3.2524e-14
-3.59654e-20
-3.22399e-14
-3.66923e-20
-3.19583e-14
-3.73978e-20
-3.16791e-14
-3.80821e-20
-3.14024e-14
-3.87452e-20
-3.1128e-14
-3.93873e-20
-3.08561e-14
-4.00088e-20
-3.05866e-14
-4.06097e-20
-3.03194e-14
-4.11903e-20
-3.00545e-14
-4.17509e-20
-2.9792e-14
-4.22917e-20
-2.95317e-14
-4.28128e-20
-2.92737e-14
-4.33147e-20
-2.9018e-14
-4.37974e-20
-2.87645e-14
-4.42614e-20
-2.85132e-14
-4.47068e-20
-2.82642e-14
-4.51339e-20
-2.80173e-14
-4.55431e-20
-2.77725e-14
-4.59345e-20
-2.75299e-14
-4.63085e-20
-2.72894e-14
-4.66654e-20
-2.7051e-14
-4.70054e-20
-2.68147e-14
-4.73289e-20
-2.65805e-14
-4.76361e-20
-2.63483e-14
-4.79273e-20
-2.61181e-14
-4.82028e-20
-2.58899e-14
-4.84629e-20
-2.56638e-14
-4.8708e-20
-2.54396e-14
-4.89382e-20
-2.52174e-14
-4.91539e-20
-2.49971e-14
-4.93553e-20
-2.47787e-14
-4.95429e-20
-2.45622e-14
-4.97168e-20
-2.43477e-14
-4.98773e-20
-2.4135e-14
-5.00248e-20
-2.39242e-14
-5.01595e-20
-2.37152e-14
-5.02817e-20
-2.3508e-14
-5.03917e-20
-2.33026e-14
-5.04897e-20
-2.30991e-14
-5.0576e-20
-2.28973e-14
-5.0651e-20
-2.26973e-14
-5.07149e-20
-2.2499e-14
-5.07679e-20
-2.23024e-14
-5.08103e-20
-2.21076e-14
-5.08423e-20
-2.19145e-14
-5.08643e-20
-2.17231e-14
-5.08765e-20
-2.15333e-14
-2.13452e-14
-5.08791e-20
-1.62256e-21
-4.26904e-14
-3.22975e-21
-4.23174e-14
-4.82056e-21
-4.19478e-14
-6.39403e-21
-4.15813e-14
-7.94928e-21
-4.12181e-14
-9.48547e-21
-4.0858e-14
-1.10018e-20
-4.05011e-14
-1.24976e-20
-4.01473e-14
-1.39722e-20
-3.97966e-14
-1.54249e-20
-3.94489e-14
-1.68552e-20
-3.91043e-14
-1.82626e-20
-3.87627e-14
-1.96466e-20
-3.84241e-14
-2.10067e-20
-3.80885e-14
-2.23426e-20
-3.77557e-14
-2.3654e-20
-3.74259e-14
-2.49405e-20
-3.7099e-14
-2.62018e-20
-3.67749e-14
-2.74378e-20
-3.64536e-14
-2.86483e-20
-3.61352e-14
-2.9833e-20
-3.58195e-14
-3.09919e-20
-3.55066e-14
-3.21249e-20
-3.51964e-14
-3.32318e-20
-3.4889e-14
-3.43128e-20
-3.45842e-14
-3.53677e-20
-3.42821e-14
-3.63966e-20
-3.39826e-14
-3.73995e-20
-3.36858e-14
-3.83764e-20
-3.33915e-14
-3.93276e-20
-3.30998e-14
-4.0253e-20
-3.28106e-14
-4.11529e-20
-3.2524e-14
-4.20273e-20
-3.22399e-14
-4.28764e-20
-3.19583e-14
-4.37004e-20
-3.16791e-14
-4.44995e-20
-3.14024e-14
-4.52739e-20
-3.1128e-14
-4.60239e-20
-3.08561e-14
-4.67496e-20
-3.05866e-14
-4.74513e-20
-3.03194e-14
-4.81293e-20
-3.00545e-14
-4.87838e-20
-2.9792e-14
-4.94152e-20
-2.95317e-14
-5.00236e-20
-2.92737e-14
-5.06095e-20
-2.9018e-14
-5.1173e-20
-2.87645e-14
-5.17146e-20
-2.85132e-14
-5.22345e-20
-2.82642e-14
-5.2733e-20
-2.80173e-14
-5.32106e-20
-2.77725e-14
-5.36674e-20
-2.75299e-14
-5.41038e-20
-2.72894e-14
-5.45202e-20
-2.7051e-14
-5.49169e-20
-2.68147e-14
-5.52943e-20
-2.65805e-14
-5.56526e-20
-2.63483e-14
-5.59923e-20
-2.61181e-14
-5.63136e-20
-2.58899e-14
-5.66169e-20
-2.56638e-14
-5.69026e-20
-2.54396e-14
-5.7171e-20
-2.52174e-14
-5.74224e-20
-2.49971e-14
-5.76572e-20
-2.47787e-14
-5.78758e-20
-2.45622e-14
-5.80784e-20
-2.43477e-14
-5.82653e-20
-2.4135e-14
-5.84371e-20
-2.39242e-14
-5.85939e-20
-2.37152e-14
-5.8736e-20
-2.3508e-14
-5.8864e-20
-2.33026e-14
-5.89779e-20
-2.30991e-14
-5.90783e-20
-2.28973e-14
-5.91653e-20
-2.26973e-14
-5.92393e-20
-2.2499e-14
-5.93007e-20
-2.23024e-14
-5.93497e-20
-2.21076e-14
-5.93866e-20
-2.19145e-14
-5.94118e-20
-2.17231e-14
-5.94255e-20
-2.15333e-14
-2.13452e-14
-5.94281e-20
-1.90744e-21
-4.26904e-14
-3.7968e-21
-4.23174e-14
-5.6669e-21
-4.19478e-14
-7.51661e-21
-4.15813e-14
-9.34488e-21
-4.12181e-14
-1.11507e-20
-4.0858e-14
-1.29333e-20
-4.05011e-14
-1.46916e-20
-4.01473e-14
-1.6425e-20
-3.97966e-14
-1.81326e-20
-3.94489e-14
-1.98139e-20
-3.91043e-14
-2.14683e-20
-3.87627e-14
-2.3095e-20
-3.84241e-14
-2.46937e-20
-3.80885e-14
-2.6264e-20
-3.77557e-14
-2.78053e-20
-3.74259e-14
-2.93173e-20
-3.7099e-14
-3.07998e-20
-3.67749e-14
-3.22525e-20
-3.64536e-14
-3.3675e-20
-3.61352e-14
-3.50673e-20
-3.58195e-14
-3.64293e-20
-3.55066e-14
-3.77607e-20
-3.51964e-14
-3.90615e-20
-3.4889e-14
-4.03317e-20
-3.45842e-14
-4.15712e-20
-3.42821e-14
-4.27801e-20
-3.39826e-14
-4.39585e-20
-3.36858e-14
-4.51064e-20
-3.33915e-14
-4.62239e-20
-3.30998e-14
-4.73111e-20
-3.28106e-14
-4.83682e-20
-3.2524e-14
-4.93954e-20
-3.22399e-14
-5.03928e-20
-3.19583e-14
-5.13607e-20
-3.16791e-14
-5.22993e-20
-3.14024e-14
-5.32089e-20
-3.1128e-14
-5.40897e-20
-3.08561e-14
-5.49419e-20
-3.05866e-14
-5.5766e-20
-3.03194e-14
-5.65621e-20
-3.00545e-14
-5.73307e-20
-2.9792e-14
-5.80719e-20
-2.95317e-14
-5.87863e-20
-2.92737e-14
-5.94741e-20
-2.9018e-14
-6.01357e-20
-2.87645e-14
-6.07714e-20
-2.85132e-14
-6.13816e-20
-2.82642e-14
-6.19667e-20
-2.80173e-14
-6.25271e-20
-2.77725e-14
-6.30631e-20
-2.75299e-14
-6.35753e-20
-2.72894e-14
-6.40638e-20
-2.7051e-14
-6.45292e-20
-2.68147e-14
-6.49718e-20
-2.65805e-14
-6.53921e-20
-2.63483e-14
-6.57904e-20
-2.61181e-14
-6.61672e-20
-2.58899e-14
-6.65229e-20
-2.56638e-14
-6.68578e-20
-2.54396e-14
-6.71723e-20
-2.52174e-14
-6.7467e-20
-2.49971e-14
-6.77421e-20
-2.47787e-14
-6.79981e-20
-2.45622e-14
-6.82353e-20
-2.43477e-14
-6.84542e-20
-2.4135e-14
-6.86552e-20
-2.39242e-14
-6.88386e-20
-2.37152e-14
-6.90049e-20
-2.3508e-14
-6.91544e-20
-2.33026e-14
-6.92876e-20
-2.30991e-14
-6.94047e-20
-2.28973e-14
-6.95062e-20
-2.26973e-14
-6.95924e-20
-2.2499e-14
-6.96638e-20
-2.23024e-14
-6.97206e-20
-2.21076e-14
-6.97633e-20
-2.19145e-14
-6.97921e-20
-2.17231e-14
-6.98075e-20
-2.15333e-14
-2.13452e-14
-6.98098e-20
-2.25191e-21
-4.26904e-14
-4.48248e-21
-4.23174e-14
-6.6903e-21
-4.19478e-14
-8.87403e-21
-4.15813e-14
-1.10324e-20
-4.12181e-14
-1.31644e-20
-4.0858e-14
-1.52687e-20
-4.05011e-14
-1.73445e-20
-4.01473e-14
-1.93908e-20
-3.97966e-14
-2.14067e-20
-3.94489e-14
-2.33914e-20
-3.91043e-14
-2.53443e-20
-3.87627e-14
-2.72646e-20
-3.84241e-14
-2.91517e-20
-3.80885e-14
-3.10051e-20
-3.77557e-14
-3.28244e-20
-3.74259e-14
-3.46091e-20
-3.7099e-14
-3.63589e-20
-3.67749e-14
-3.80734e-20
-3.64536e-14
-3.97523e-20
-3.61352e-14
-4.13955e-20
-3.58195e-14
-4.30027e-20
-3.55066e-14
-4.45739e-20
-3.51964e-14
-4.61089e-20
-3.4889e-14
-4.76078e-20
-3.45842e-14
-4.90704e-20
-3.42821e-14
-5.04968e-20
-3.39826e-14
-5.18871e-20
-3.36858e-14
-5.32414e-20
-3.33915e-14
-5.45598e-20
-3.30998e-14
-5.58424e-20
-3.28106e-14
-5.70894e-20
-3.2524e-14
-5.8301e-20
-3.22399e-14
-5.94775e-20
-3.19583e-14
-6.06192e-20
-3.16791e-14
-6.17262e-20
-3.14024e-14
-6.27988e-20
-3.1128e-14
-6.38375e-20
-3.08561e-14
-6.48425e-20
-3.05866e-14
-6.58141e-20
-3.03194e-14
-6.67528e-20
-3.00545e-14
-6.76589e-20
-2.9792e-14
-6.85328e-20
-2.95317e-14
-6.93749e-20
-2.92737e-14
-7.01856e-20
-2.9018e-14
-7.09654e-20
-2.87645e-14
-7.17146e-20
-2.85132e-14
-7.24337e-20
-2.82642e-14
-7.31231e-20
-2.80173e-14
-7.37834e-20
-2.77725e-14
-7.44149e-20
-2.75299e-14
-7.50181e-20
-2.72894e-14
-7.55936e-20
-2.7051e-14
-7.61417e-20
-2.68147e-14
-7.66629e-20
-2.65805e-14
-7.71577e-20
-2.63483e-14
-7.76267e-20
-2.61181e-14
-7.80702e-20
-2.58899e-14
-7.84887e-20
-2.56638e-14
-7.88828e-20
-2.54396e-14
-7.92528e-20
-2.52174e-14
-7.95994e-20
-2.49971e-14
-7.99229e-20
-2.47787e-14
-8.02238e-20
-2.45622e-14
-8.05026e-20
-2.43477e-14
-8.07598e-20
-2.4135e-14
-8.09959e-20
-2.39242e-14
-8.12112e-20
-2.37152e-14
-8.14063e-20
-2.3508e-14
-8.15816e-20
-2.33026e-14
-8.17376e-20
-2.30991e-14
-8.18748e-20
-2.28973e-14
-8.19935e-20
-2.26973e-14
-8.20942e-20
-2.2499e-14
-8.21773e-20
-2.23024e-14
-8.22433e-20
-2.21076e-14
-8.22926e-20
-2.19145e-14
-8.23256e-20
-2.17231e-14
-8.23428e-20
-2.15333e-14
-2.13452e-14
-8.23445e-20
-2.66693e-21
-4.26904e-14
-5.30858e-21
-4.23174e-14
-7.92327e-21
-4.19478e-14
-1.05094e-20
-4.15813e-14
-1.30656e-20
-4.12181e-14
-1.55903e-20
-4.0858e-14
-1.80824e-20
-4.05011e-14
-2.05406e-20
-4.01473e-14
-2.29638e-20
-3.97966e-14
-2.5351e-20
-3.94489e-14
-2.77012e-20
-3.91043e-14
-3.00136e-20
-3.87627e-14
-3.22874e-20
-3.84241e-14
-3.4522e-20
-3.80884e-14
-3.67165e-20
-3.77557e-14
-3.88706e-20
-3.74259e-14
-4.09836e-20
-3.7099e-14
-4.30552e-20
-3.67749e-14
-4.50849e-20
-3.64536e-14
-4.70725e-20
-3.61352e-14
-4.90177e-20
-3.58195e-14
-5.09203e-20
-3.55066e-14
-5.27801e-20
-3.51964e-14
-5.4597e-20
-3.4889e-14
-5.6371e-20
-3.45842e-14
-5.81021e-20
-3.42821e-14
-5.97903e-20
-3.39826e-14
-6.14356e-20
-3.36858e-14
-6.30382e-20
-3.33915e-14
-6.45983e-20
-3.30998e-14
-6.61159e-20
-3.28106e-14
-6.75913e-20
-3.2524e-14
-6.90249e-20
-3.22399e-14
-7.04167e-20
-3.19583e-14
-7.17672e-20
-3.16791e-14
-7.30766e-20
-3.14024e-14
-7.43454e-20
-3.1128e-14
-7.55739e-20
-3.08561e-14
-7.67624e-20
-3.05866e-14
-7.79114e-20
-3.03194e-14
-7.90214e-20
-3.00545e-14
-8.00927e-20
-2.9792e-14
-8.11259e-20
-2.95317e-14
-8.21214e-20
-2.92737e-14
-8.30797e-20
-2.9018e-14
-8.40013e-20
-2.87645e-14
-8.48868e-20
-2.85132e-14
-8.57365e-20
-2.82642e-14
-8.65512e-20
-2.80173e-14
-8.73313e-20
-2.77725e-14
-8.80773e-20
-2.75299e-14
-8.87898e-20
-2.72894e-14
-8.94694e-20
-2.7051e-14
-9.01167e-20
-2.68147e-14
-9.07321e-20
-2.65805e-14
-9.13162e-20
-2.63483e-14
-9.18697e-20
-2.61181e-14
-9.23931e-20
-2.58899e-14
-9.28869e-20
-2.56638e-14
-9.33518e-20
-2.54396e-14
-9.37882e-20
-2.52174e-14
-9.41968e-20
-2.49971e-14
-9.45781e-20
-2.47787e-14
-9.49327e-20
-2.45622e-14
-9.52612e-20
-2.43477e-14
-9.5564e-20
-2.4135e-14
-9.58418e-20
-2.39242e-14
-9.60951e-20
-2.37152e-14
-9.63245e-20
-2.3508e-14
-9.65305e-20
-2.33026e-14
-9.67136e-20
-2.30991e-14
-9.68744e-20
-2.28973e-14
-9.70133e-20
-2.26973e-14
-9.7131e-20
-2.2499e-14
-9.7228e-20
-2.23024e-14
-9.73046e-20
-2.21076e-14
-9.73615e-20
-2.19145e-14
-9.73992e-20
-2.17231e-14
-9.74181e-20
-2.15333e-14
-2.13452e-14
-9.74187e-20
-3.16575e-21
-4.26904e-14
-6.30148e-21
-4.23174e-14
-9.4052e-21
-4.19478e-14
-1.2475e-20
-4.15813e-14
-1.55092e-20
-4.12181e-14
-1.8506e-20
-4.0858e-14
-2.14641e-20
-4.05011e-14
-2.43818e-20
-4.01473e-14
-2.7258e-20
-3.97966e-14
-3.00914e-20
-3.94489e-14
-3.28808e-20
-3.91043e-14
-3.56253e-20
-3.87627e-14
-3.83239e-20
-3.84241e-14
-4.09757e-20
-3.80884e-14
-4.35801e-20
-3.77557e-14
-4.61363e-20
-3.74259e-14
-4.86437e-20
-3.7099e-14
-5.11018e-20
-3.67749e-14
-5.35102e-20
-3.64536e-14
-5.58685e-20
-3.61352e-14
-5.81764e-20
-3.58195e-14
-6.04336e-20
-3.55066e-14
-6.26399e-20
-3.51964e-14
-6.47953e-20
-3.4889e-14
-6.68997e-20
-3.45842e-14
-6.8953e-20
-3.42821e-14
-7.09553e-20
-3.39826e-14
-7.29067e-20
-3.36857e-14
-7.48073e-20
-3.33915e-14
-7.66573e-20
-3.30998e-14
-7.84569e-20
-3.28106e-14
-8.02063e-20
-3.2524e-14
-8.19059e-20
-3.22399e-14
-8.3556e-20
-3.19583e-14
-8.5157e-20
-3.16791e-14
-8.67092e-20
-3.14024e-14
-8.8213e-20
-3.1128e-14
-8.96689e-20
-3.08561e-14
-9.10774e-20
-3.05866e-14
-9.2439e-20
-3.03194e-14
-9.37542e-20
-3.00545e-14
-9.50234e-20
-2.9792e-14
-9.62474e-20
-2.95317e-14
-9.74266e-20
-2.92737e-14
-9.85616e-20
-2.9018e-14
-9.9653e-20
-2.87645e-14
-1.00701e-19
-2.85132e-14
-1.01708e-19
-2.82642e-14
-1.02672e-19
-2.80173e-14
-1.03595e-19
-2.77725e-14
-1.04478e-19
-2.75299e-14
-1.05321e-19
-2.72894e-14
-1.06126e-19
-2.7051e-14
-1.06891e-19
-2.68147e-14
-1.07619e-19
-2.65805e-14
-1.0831e-19
-2.63483e-14
-1.08964e-19
-2.61181e-14
-1.09583e-19
-2.58899e-14
-1.10166e-19
-2.56638e-14
-1.10716e-19
-2.54396e-14
-1.11231e-19
-2.52174e-14
-1.11714e-19
-2.49971e-14
-1.12164e-19
-2.47787e-14
-1.12582e-19
-2.45622e-14
-1.1297e-19
-2.43477e-14
-1.13327e-19
-2.4135e-14
-1.13654e-19
-2.39242e-14
-1.13952e-19
-2.37152e-14
-1.14222e-19
-2.3508e-14
-1.14464e-19
-2.33026e-14
-1.14679e-19
-2.30991e-14
-1.14868e-19
-2.28973e-14
-1.15031e-19
-2.26973e-14
-1.15168e-19
-2.2499e-14
-1.15281e-19
-2.23024e-14
-1.1537e-19
-2.21076e-14
-1.15435e-19
-2.19145e-14
-1.15478e-19
-2.17231e-14
-1.15499e-19
-2.15333e-14
-2.13452e-14
-1.15497e-19
-3.76441e-21
-4.26904e-14
-7.4931e-21
-4.23174e-14
-1.11837e-20
-4.19478e-14
-1.4834e-20
-4.15813e-14
-1.84418e-20
-4.12181e-14
-2.20052e-20
-4.0858e-14
-2.55224e-20
-4.05011e-14
-2.89916e-20
-4.01473e-14
-3.24113e-20
-3.97966e-14
-3.578e-20
-3.94489e-14
-3.90964e-20
-3.91043e-14
-4.23592e-20
-3.87627e-14
-4.55674e-20
-3.84241e-14
-4.87199e-20
-3.80884e-14
-5.18158e-20
-3.77557e-14
-5.48543e-20
-3.74259e-14
-5.78347e-20
-3.7099e-14
-6.07564e-20
-3.67749e-14
-6.36189e-20
-3.64536e-14
-6.64216e-20
-3.61352e-14
-6.91643e-20
-3.58195e-14
-7.18466e-20
-3.55066e-14
-7.44684e-20
-3.51964e-14
-7.70294e-20
-3.4889e-14
-7.95296e-20
-3.45842e-14
-8.19691e-20
-3.42821e-14
-8.43478e-20
-3.39826e-14
-8.66658e-20
-3.36857e-14
-8.89233e-20
-3.33915e-14
-9.11206e-20
-3.30998e-14
-9.32578e-20
-3.28106e-14
-9.53353e-20
-3.2524e-14
-9.73535e-20
-3.22399e-14
-9.93127e-20
-3.19583e-14
-1.01213e-19
-3.16791e-14
-1.03056e-19
-3.14023e-14
-1.04841e-19
-3.1128e-14
-1.06569e-19
-3.08561e-14
-1.08241e-19
-3.05866e-14
-1.09856e-19
-3.03194e-14
-1.11417e-19
-3.00545e-14
-1.12923e-19
-2.9792e-14
-1.14375e-19
-2.95317e-14
-1.15773e-19
-2.92737e-14
-1.17119e-19
-2.9018e-14
-1.18414e-19
-2.87645e-14
-1.19657e-19
-2.85132e-14
-1.20849e-19
-2.82642e-14
-1.21993e-19
-2.80173e-14
-1.23087e-19
-2.77725e-14
-1.24133e-19
-2.75299e-14
-1.25132e-19
-2.72894e-14
-1.26084e-19
-2.7051e-14
-1.26991e-19
-2.68147e-14
-1.27853e-19
-2.65805e-14
-1.28671e-19
-2.63483e-14
-1.29445e-19
-2.61181e-14
-1.30177e-19
-2.58899e-14
-1.30867e-19
-2.56638e-14
-1.31517e-19
-2.54396e-14
-1.32126e-19
-2.52174e-14
-1.32696e-19
-2.49971e-14
-1.33228e-19
-2.47787e-14
-1.33722e-19
-2.45622e-14
-1.34179e-19
-2.43477e-14
-1.346e-19
-2.4135e-14
-1.34986e-19
-2.39242e-14
-1.35337e-19
-2.37152e-14
-1.35655e-19
-2.3508e-14
-1.3594e-19
-2.33026e-14
-1.36192e-19
-2.30991e-14
-1.36413e-19
-2.28973e-14
-1.36603e-19
-2.26973e-14
-1.36764e-19
-2.2499e-14
-1.36895e-19
-2.23024e-14
-1.36998e-19
-2.21076e-14
-1.37073e-19
-2.19145e-14
-1.37121e-19
-2.17231e-14
-1.37142e-19
-2.15333e-14
-2.13452e-14
-1.37138e-19
-4.48228e-21
-4.26904e-14
-8.92202e-21
-4.23174e-14
-1.33164e-20
-4.19478e-14
-1.76626e-20
-4.15813e-14
-2.19583e-20
-4.12181e-14
-2.6201e-20
-4.0858e-14
-3.03886e-20
-4.05011e-14
-3.4519e-20
-4.01473e-14
-3.85903e-20
-3.97966e-14
-4.26008e-20
-3.94489e-14
-4.65488e-20
-3.91043e-14
-5.0433e-20
-3.87627e-14
-5.42519e-20
-3.84241e-14
-5.80044e-20
-3.80884e-14
-6.16894e-20
-3.77557e-14
-6.53058e-20
-3.74259e-14
-6.8853e-20
-3.7099e-14