/*--------------------------------*- C++ -*----------------------------------*\
  =========                 |
  \\      /  F ield         | OpenFOAM: The Open Source CFD Toolbox
   \\    /   O peration     | Website:  https://openfoam.org
    \\  /    A nd           | Version:  8
     \\/     M anipulation  |
\*---------------------------------------------------------------------------*/
FoamFile
{
    version     2.0;
    format      ascii;
    class       volVectorField;
    location    "1000";
    object      Ua;
}
// * * * * * * * * * * * * * * * * * * * * * * * * * * * * * * * * * * * * * //

dimensions      [0 1 -1 0 0 0 0];

internalField   nonuniform List<vector> 
12800
(
(-1.56819e-10 2.26849e-10 0)
(-4.68973e-10 2.26682e-10 0)
(-7.7806e-10 2.26352e-10 0)
(-1.08389e-09 2.25864e-10 0)
(-1.3863e-09 2.25222e-10 0)
(-1.6851e-09 2.2443e-10 0)
(-1.98016e-09 2.23495e-10 0)
(-2.27132e-09 2.22419e-10 0)
(-2.55846e-09 2.21208e-10 0)
(-2.84145e-09 2.19865e-10 0)
(-3.12017e-09 2.18396e-10 0)
(-3.39452e-09 2.16804e-10 0)
(-3.66441e-09 2.15095e-10 0)
(-3.92976e-09 2.13273e-10 0)
(-4.19047e-09 2.11341e-10 0)
(-4.44648e-09 2.09304e-10 0)
(-4.69774e-09 2.07167e-10 0)
(-4.94418e-09 2.04933e-10 0)
(-5.18575e-09 2.02606e-10 0)
(-5.42243e-09 2.00191e-10 0)
(-5.65416e-09 1.97692e-10 0)
(-5.88094e-09 1.95112e-10 0)
(-6.10273e-09 1.92455e-10 0)
(-6.31951e-09 1.89725e-10 0)
(-6.53129e-09 1.86926e-10 0)
(-6.73805e-09 1.8406e-10 0)
(-6.9398e-09 1.81133e-10 0)
(-7.13654e-09 1.78147e-10 0)
(-7.32828e-09 1.75105e-10 0)
(-7.51503e-09 1.72011e-10 0)
(-7.69681e-09 1.68868e-10 0)
(-7.87366e-09 1.65679e-10 0)
(-8.04558e-09 1.62447e-10 0)
(-8.21261e-09 1.59176e-10 0)
(-8.37479e-09 1.55867e-10 0)
(-8.53214e-09 1.52525e-10 0)
(-8.68472e-09 1.49151e-10 0)
(-8.83255e-09 1.45748e-10 0)
(-8.97568e-09 1.42319e-10 0)
(-9.11417e-09 1.38866e-10 0)
(-9.24805e-09 1.35393e-10 0)
(-9.37737e-09 1.319e-10 0)
(-9.5022e-09 1.28391e-10 0)
(-9.62258e-09 1.24867e-10 0)
(-9.73858e-09 1.21331e-10 0)
(-9.85023e-09 1.17785e-10 0)
(-9.95762e-09 1.14231e-10 0)
(-1.00608e-08 1.10671e-10 0)
(-1.01598e-08 1.07106e-10 0)
(-1.02547e-08 1.03539e-10 0)
(-1.03456e-08 9.99706e-11 0)
(-1.04325e-08 9.64032e-11 0)
(-1.05155e-08 9.28382e-11 0)
(-1.05947e-08 8.92771e-11 0)
(-1.06701e-08 8.57214e-11 0)
(-1.07418e-08 8.21726e-11 0)
(-1.08098e-08 7.86319e-11 0)
(-1.08743e-08 7.51008e-11 0)
(-1.09353e-08 7.15804e-11 0)
(-1.09928e-08 6.8072e-11 0)
(-1.10469e-08 6.45766e-11 0)
(-1.10977e-08 6.10955e-11 0)
(-1.11453e-08 5.76295e-11 0)
(-1.11896e-08 5.41798e-11 0)
(-1.12309e-08 5.07473e-11 0)
(-1.12691e-08 4.73328e-11 0)
(-1.13043e-08 4.39373e-11 0)
(-1.13366e-08 4.05614e-11 0)
(-1.1366e-08 3.72061e-11 0)
(-1.13927e-08 3.38721e-11 0)
(-1.14165e-08 3.05599e-11 0)
(-1.14378e-08 2.72703e-11 0)
(-1.14564e-08 2.40039e-11 0)
(-1.14724e-08 2.07613e-11 0)
(-1.1486e-08 1.75429e-11 0)
(-1.14972e-08 1.43494e-11 0)
(-1.15059e-08 1.11811e-11 0)
(-1.15124e-08 8.0386e-12 0)
(-1.15166e-08 4.92218e-12 0)
(-1.15186e-08 1.83226e-12 0)
(-1.61668e-10 6.8656e-10 0)
(-4.83474e-10 6.86053e-10 0)
(-8.02119e-10 6.85053e-10 0)
(-1.11741e-09 6.83573e-10 0)
(-1.42916e-09 6.81627e-10 0)
(-1.73721e-09 6.79229e-10 0)
(-2.04139e-09 6.76393e-10 0)
(-2.34155e-09 6.73132e-10 0)
(-2.63757e-09 6.6946e-10 0)
(-2.9293e-09 6.65391e-10 0)
(-3.21664e-09 6.60938e-10 0)
(-3.49948e-09 6.56114e-10 0)
(-3.77771e-09 6.50933e-10 0)
(-4.05125e-09 6.45408e-10 0)
(-4.32002e-09 6.39553e-10 0)
(-4.58395e-09 6.33379e-10 0)
(-4.84297e-09 6.269e-10 0)
(-5.09702e-09 6.20129e-10 0)
(-5.34606e-09 6.13077e-10 0)
(-5.59005e-09 6.05757e-10 0)
(-5.82894e-09 5.98181e-10 0)
(-6.06272e-09 5.9036e-10 0)
(-6.29136e-09 5.82307e-10 0)
(-6.51484e-09 5.74032e-10 0)
(-6.73316e-09 5.65547e-10 0)
(-6.9463e-09 5.56862e-10 0)
(-7.15428e-09 5.47989e-10 0)
(-7.35709e-09 5.38937e-10 0)
(-7.55474e-09 5.29717e-10 0)
(-7.74726e-09 5.20339e-10 0)
(-7.93465e-09 5.10812e-10 0)
(-8.11695e-09 5.01146e-10 0)
(-8.29418e-09 4.91351e-10 0)
(-8.46636e-09 4.81434e-10 0)
(-8.63354e-09 4.71406e-10 0)
(-8.79575e-09 4.61275e-10 0)
(-8.95302e-09 4.51048e-10 0)
(-9.10541e-09 4.40734e-10 0)
(-9.25296e-09 4.30341e-10 0)
(-9.39571e-09 4.19876e-10 0)
(-9.53371e-09 4.09347e-10 0)
(-9.66702e-09 3.98761e-10 0)
(-9.79569e-09 3.88124e-10 0)
(-9.91978e-09 3.77444e-10 0)
(-1.00393e-08 3.66727e-10 0)
(-1.01544e-08 3.55979e-10 0)
(-1.02651e-08 3.45207e-10 0)
(-1.03715e-08 3.34415e-10 0)
(-1.04735e-08 3.2361e-10 0)
(-1.05714e-08 3.12798e-10 0)
(-1.0665e-08 3.01983e-10 0)
(-1.07546e-08 2.9117e-10 0)
(-1.08402e-08 2.80364e-10 0)
(-1.09218e-08 2.69571e-10 0)
(-1.09995e-08 2.58794e-10 0)
(-1.10734e-08 2.48037e-10 0)
(-1.11435e-08 2.37306e-10 0)
(-1.121e-08 2.26603e-10 0)
(-1.12728e-08 2.15933e-10 0)
(-1.13321e-08 2.05299e-10 0)
(-1.13878e-08 1.94705e-10 0)
(-1.14402e-08 1.84154e-10 0)
(-1.14892e-08 1.73649e-10 0)
(-1.15349e-08 1.63193e-10 0)
(-1.15775e-08 1.52789e-10 0)
(-1.16168e-08 1.4244e-10 0)
(-1.16531e-08 1.32149e-10 0)
(-1.16864e-08 1.21917e-10 0)
(-1.17167e-08 1.11747e-10 0)
(-1.17441e-08 1.01642e-10 0)
(-1.17688e-08 9.16033e-11 0)
(-1.17906e-08 8.1633e-11 0)
(-1.18098e-08 7.17329e-11 0)
(-1.18263e-08 6.19049e-11 0)
(-1.18403e-08 5.21505e-11 0)
(-1.18518e-08 4.24714e-11 0)
(-1.18608e-08 3.28688e-11 0)
(-1.18675e-08 2.33442e-11 0)
(-1.18718e-08 1.38988e-11 0)
(-1.18739e-08 4.53378e-12 0)
(-1.71518e-10 1.16749e-09 0)
(-5.12929e-10 1.16663e-09 0)
(-8.50986e-10 1.16492e-09 0)
(-1.18548e-09 1.16241e-09 0)
(-1.51623e-09 1.1591e-09 0)
(-1.84304e-09 1.15502e-09 0)
(-2.16575e-09 1.15019e-09 0)
(-2.4842e-09 1.14464e-09 0)
(-2.79825e-09 1.1384e-09 0)
(-3.10775e-09 1.13147e-09 0)
(-3.41259e-09 1.1239e-09 0)
(-3.71265e-09 1.11569e-09 0)
(-4.00783e-09 1.10688e-09 0)
(-4.29803e-09 1.09748e-09 0)
(-4.58316e-09 1.08752e-09 0)
(-4.86316e-09 1.07701e-09 0)
(-5.13795e-09 1.06599e-09 0)
(-5.40747e-09 1.05447e-09 0)
(-5.67167e-09 1.04247e-09 0)
(-5.9305e-09 1.03002e-09 0)
(-6.18394e-09 1.01713e-09 0)
(-6.43194e-09 1.00383e-09 0)
(-6.67449e-09 9.90128e-10 0)
(-6.91157e-09 9.7605e-10 0)
(-7.14317e-09 9.61615e-10 0)
(-7.36928e-09 9.46841e-10 0)
(-7.5899e-09 9.31745e-10 0)
(-7.80505e-09 9.16346e-10 0)
(-8.01472e-09 9.00661e-10 0)
(-8.21894e-09 8.84707e-10 0)
(-8.41773e-09 8.68501e-10 0)
(-8.6111e-09 8.52058e-10 0)
(-8.7991e-09 8.35394e-10 0)
(-8.98175e-09 8.18525e-10 0)
(-9.15908e-09 8.01465e-10 0)
(-9.33114e-09 7.8423e-10 0)
(-9.49797e-09 7.66833e-10 0)
(-9.65961e-09 7.49287e-10 0)
(-9.81611e-09 7.31607e-10 0)
(-9.96752e-09 7.13805e-10 0)
(-1.01139e-08 6.95894e-10 0)
(-1.02553e-08 6.77886e-10 0)
(-1.03918e-08 6.59792e-10 0)
(-1.05234e-08 6.41624e-10 0)
(-1.06502e-08 6.23393e-10 0)
(-1.07723e-08 6.0511e-10 0)
(-1.08897e-08 5.86785e-10 0)
(-1.10024e-08 5.68428e-10 0)
(-1.11107e-08 5.50048e-10 0)
(-1.12144e-08 5.31655e-10 0)
(-1.13138e-08 5.13257e-10 0)
(-1.14088e-08 4.94864e-10 0)
(-1.14996e-08 4.76483e-10 0)
(-1.15861e-08 4.58123e-10 0)
(-1.16685e-08 4.39791e-10 0)
(-1.17469e-08 4.21494e-10 0)
(-1.18212e-08 4.03239e-10 0)
(-1.18917e-08 3.85034e-10 0)
(-1.19583e-08 3.66883e-10 0)
(-1.20211e-08 3.48795e-10 0)
(-1.20803e-08 3.30774e-10 0)
(-1.21358e-08 3.12827e-10 0)
(-1.21878e-08 2.94958e-10 0)
(-1.22362e-08 2.77173e-10 0)
(-1.22813e-08 2.59476e-10 0)
(-1.23231e-08 2.41873e-10 0)
(-1.23615e-08 2.24367e-10 0)
(-1.23968e-08 2.06963e-10 0)
(-1.24289e-08 1.89665e-10 0)
(-1.2458e-08 1.72477e-10 0)
(-1.24841e-08 1.55401e-10 0)
(-1.25072e-08 1.38442e-10 0)
(-1.25275e-08 1.21603e-10 0)
(-1.25451e-08 1.04886e-10 0)
(-1.25599e-08 8.82945e-11 0)
(-1.2572e-08 7.18309e-11 0)
(-1.25816e-08 5.54978e-11 0)
(-1.25886e-08 3.92973e-11 0)
(-1.25931e-08 2.32315e-11 0)
(-1.25953e-08 7.30246e-12 0)
(-1.86674e-10 1.68451e-09 0)
(-5.58256e-10 1.68326e-09 0)
(-9.26187e-10 1.68081e-09 0)
(-1.29024e-09 1.67717e-09 0)
(-1.65021e-09 1.6724e-09 0)
(-2.0059e-09 1.66651e-09 0)
(-2.35713e-09 1.65954e-09 0)
(-2.70371e-09 1.65154e-09 0)
(-3.0455e-09 1.64252e-09 0)
(-3.38235e-09 1.63253e-09 0)
(-3.71412e-09 1.62159e-09 0)
(-4.04069e-09 1.60975e-09 0)
(-4.36194e-09 1.59702e-09 0)
(-4.67777e-09 1.58346e-09 0)
(-4.98809e-09 1.56908e-09 0)
(-5.29282e-09 1.55392e-09 0)
(-5.59187e-09 1.53801e-09 0)
(-5.88519e-09 1.52138e-09 0)
(-6.17271e-09 1.50407e-09 0)
(-6.4544e-09 1.48609e-09 0)
(-6.73021e-09 1.46749e-09 0)
(-7.0001e-09 1.44829e-09 0)
(-7.26406e-09 1.42851e-09 0)
(-7.52205e-09 1.4082e-09 0)
(-7.77409e-09 1.38736e-09 0)
(-8.02014e-09 1.36604e-09 0)
(-8.26023e-09 1.34425e-09 0)
(-8.49435e-09 1.32203e-09 0)
(-8.72251e-09 1.29939e-09 0)
(-8.94474e-09 1.27636e-09 0)
(-9.16105e-09 1.25297e-09 0)
(-9.37147e-09 1.22924e-09 0)
(-9.57604e-09 1.20519e-09 0)
(-9.77478e-09 1.18084e-09 0)
(-9.96774e-09 1.15622e-09 0)
(-1.0155e-08 1.13135e-09 0)
(-1.03365e-08 1.10624e-09 0)
(-1.05123e-08 1.08092e-09 0)
(-1.06826e-08 1.0554e-09 0)
(-1.08474e-08 1.02971e-09 0)
(-1.10066e-08 1.00386e-09 0)
(-1.11605e-08 9.77868e-10 0)
(-1.1309e-08 9.51755e-10 0)
(-1.14521e-08 9.25536e-10 0)
(-1.15901e-08 8.99225e-10 0)
(-1.17229e-08 8.7284e-10 0)
(-1.18506e-08 8.46393e-10 0)
(-1.19733e-08 8.19901e-10 0)
(-1.20911e-08 7.93376e-10 0)
(-1.22039e-08 7.66833e-10 0)
(-1.2312e-08 7.40283e-10 0)
(-1.24154e-08 7.13739e-10 0)
(-1.25141e-08 6.87213e-10 0)
(-1.26082e-08 6.60717e-10 0)
(-1.26978e-08 6.34262e-10 0)
(-1.2783e-08 6.07858e-10 0)
(-1.28639e-08 5.81515e-10 0)
(-1.29405e-08 5.55243e-10 0)
(-1.3013e-08 5.29051e-10 0)
(-1.30813e-08 5.02948e-10 0)
(-1.31456e-08 4.76943e-10 0)
(-1.3206e-08 4.51044e-10 0)
(-1.32625e-08 4.25258e-10 0)
(-1.33152e-08 3.99594e-10 0)
(-1.33642e-08 3.74057e-10 0)
(-1.34096e-08 3.48655e-10 0)
(-1.34514e-08 3.23394e-10 0)
(-1.34897e-08 2.9828e-10 0)
(-1.35246e-08 2.73319e-10 0)
(-1.35562e-08 2.48516e-10 0)
(-1.35846e-08 2.23877e-10 0)
(-1.36097e-08 1.99405e-10 0)
(-1.36318e-08 1.75106e-10 0)
(-1.36508e-08 1.50985e-10 0)
(-1.36669e-08 1.27044e-10 0)
(-1.368e-08 1.03288e-10 0)
(-1.36904e-08 7.97199e-11 0)
(-1.3698e-08 5.63436e-11 0)
(-1.37029e-08 3.31618e-11 0)
(-1.37052e-08 1.01775e-11 0)
(-2.07612e-10 2.25363e-09 0)
(-6.20868e-10 2.25196e-09 0)
(-1.03006e-09 2.24868e-09 0)
(-1.43495e-09 2.24381e-09 0)
(-1.83529e-09 2.23742e-09 0)
(-2.23087e-09 2.22954e-09 0)
(-2.62149e-09 2.22021e-09 0)
(-3.00694e-09 2.2095e-09 0)
(-3.38706e-09 2.19743e-09 0)
(-3.76168e-09 2.18405e-09 0)
(-4.13065e-09 2.16942e-09 0)
(-4.49383e-09 2.15357e-09 0)
(-4.85109e-09 2.13654e-09 0)
(-5.20233e-09 2.11838e-09 0)
(-5.54743e-09 2.09914e-09 0)
(-5.88631e-09 2.07885e-09 0)
(-6.21888e-09 2.05756e-09 0)
(-6.54507e-09 2.03531e-09 0)
(-6.86481e-09 2.01213e-09 0)
(-7.17806e-09 1.98808e-09 0)
(-7.48476e-09 1.96318e-09 0)
(-7.78489e-09 1.93748e-09 0)
(-8.07841e-09 1.91101e-09 0)
(-8.3653e-09 1.88382e-09 0)
(-8.64556e-09 1.85594e-09 0)
(-8.91916e-09 1.8274e-09 0)
(-9.18612e-09 1.79824e-09 0)
(-9.44645e-09 1.7685e-09 0)
(-9.70015e-09 1.7382e-09 0)
(-9.94724e-09 1.70739e-09 0)
(-1.01878e-08 1.67609e-09 0)
(-1.04217e-08 1.64433e-09 0)
(-1.06492e-08 1.61214e-09 0)
(-1.08701e-08 1.57956e-09 0)
(-1.10847e-08 1.54661e-09 0)
(-1.12928e-08 1.51332e-09 0)
(-1.14946e-08 1.47972e-09 0)
(-1.16901e-08 1.44584e-09 0)
(-1.18794e-08 1.41169e-09 0)
(-1.20626e-08 1.37731e-09 0)
(-1.22396e-08 1.34272e-09 0)
(-1.24107e-08 1.30794e-09 0)
(-1.25757e-08 1.273e-09 0)
(-1.27349e-08 1.23791e-09 0)
(-1.28882e-08 1.20271e-09 0)
(-1.30358e-08 1.1674e-09 0)
(-1.31778e-08 1.13201e-09 0)
(-1.33142e-08 1.09656e-09 0)
(-1.3445e-08 1.06107e-09 0)
(-1.35705e-08 1.02555e-09 0)
(-1.36906e-08 9.90024e-10 0)
(-1.38054e-08 9.54507e-10 0)
(-1.39151e-08 9.19014e-10 0)
(-1.40197e-08 8.83561e-10 0)
(-1.41193e-08 8.48163e-10 0)
(-1.4214e-08 8.12833e-10 0)
(-1.43039e-08 7.77586e-10 0)
(-1.4389e-08 7.42433e-10 0)
(-1.44695e-08 7.07389e-10 0)
(-1.45454e-08 6.72464e-10 0)
(-1.46169e-08 6.37669e-10 0)
(-1.46839e-08 6.03017e-10 0)
(-1.47467e-08 5.68517e-10 0)
(-1.48052e-08 5.34179e-10 0)
(-1.48596e-08 5.00012e-10 0)
(-1.491e-08 4.66026e-10 0)
(-1.49564e-08 4.32229e-10 0)
(-1.4999e-08 3.98629e-10 0)
(-1.50378e-08 3.65233e-10 0)
(-1.50728e-08 3.32049e-10 0)
(-1.51043e-08 2.99084e-10 0)
(-1.51322e-08 2.66345e-10 0)
(-1.51566e-08 2.33836e-10 0)
(-1.51777e-08 2.01565e-10 0)
(-1.51955e-08 1.69535e-10 0)
(-1.52101e-08 1.37753e-10 0)
(-1.52215e-08 1.06224e-10 0)
(-1.52299e-08 7.49502e-11 0)
(-1.52353e-08 4.39373e-11 0)
(-1.52378e-08 1.31886e-11 0)
(-2.34983e-10 2.89248e-09 0)
(-7.02723e-10 2.89034e-09 0)
(-1.16587e-09 2.88612e-09 0)
(-1.62413e-09 2.87987e-09 0)
(-2.07725e-09 2.87166e-09 0)
(-2.52498e-09 2.86154e-09 0)
(-2.96708e-09 2.84957e-09 0)
(-3.40335e-09 2.83581e-09 0)
(-3.83357e-09 2.82031e-09 0)
(-4.25757e-09 2.80314e-09 0)
(-4.67517e-09 2.78434e-09 0)
(-5.08621e-09 2.76399e-09 0)
(-5.49056e-09 2.74212e-09 0)
(-5.88807e-09 2.71881e-09 0)
(-6.27865e-09 2.6941e-09 0)
(-6.66217e-09 2.66805e-09 0)
(-7.03855e-09 2.64071e-09 0)
(-7.4077e-09 2.61213e-09 0)
(-7.76956e-09 2.58238e-09 0)
(-8.12406e-09 2.55149e-09 0)
(-8.47115e-09 2.51952e-09 0)
(-8.81079e-09 2.48652e-09 0)
(-9.14295e-09 2.45254e-09 0)
(-9.4676e-09 2.41763e-09 0)
(-9.78474e-09 2.38183e-09 0)
(-1.00944e-08 2.34518e-09 0)
(-1.03964e-08 2.30775e-09 0)
(-1.0691e-08 2.26956e-09 0)
(-1.09781e-08 2.23066e-09 0)
(-1.12577e-08 2.19109e-09 0)
(-1.15298e-08 2.1509e-09 0)
(-1.17945e-08 2.11013e-09 0)
(-1.20519e-08 2.0688e-09 0)
(-1.23019e-08 2.02697e-09 0)
(-1.25446e-08 1.98467e-09 0)
(-1.27801e-08 1.94193e-09 0)
(-1.30084e-08 1.89879e-09 0)
(-1.32296e-08 1.85529e-09 0)
(-1.34438e-08 1.81145e-09 0)
(-1.36509e-08 1.76731e-09 0)
(-1.38512e-08 1.72291e-09 0)
(-1.40447e-08 1.67826e-09 0)
(-1.42314e-08 1.6334e-09 0)
(-1.44114e-08 1.58836e-09 0)
(-1.45849e-08 1.54316e-09 0)
(-1.47518e-08 1.49783e-09 0)
(-1.49124e-08 1.4524e-09 0)
(-1.50666e-08 1.4069e-09 0)
(-1.52146e-08 1.36133e-09 0)
(-1.53565e-08 1.31574e-09 0)
(-1.54923e-08 1.27013e-09 0)
(-1.56222e-08 1.22454e-09 0)
(-1.57462e-08 1.17898e-09 0)
(-1.58645e-08 1.13347e-09 0)
(-1.59771e-08 1.08803e-09 0)
(-1.60842e-08 1.04268e-09 0)
(-1.61858e-08 9.97439e-10 0)
(-1.6282e-08 9.52317e-10 0)
(-1.6373e-08 9.07334e-10 0)
(-1.64588e-08 8.62505e-10 0)
(-1.65395e-08 8.17844e-10 0)
(-1.66153e-08 7.73366e-10 0)
(-1.66862e-08 7.29083e-10 0)
(-1.67524e-08 6.85009e-10 0)
(-1.68139e-08 6.41156e-10 0)
(-1.68708e-08 5.97534e-10 0)
(-1.69232e-08 5.54155e-10 0)
(-1.69712e-08 5.1103e-10 0)
(-1.7015e-08 4.68167e-10 0)
(-1.70546e-08 4.25577e-10 0)
(-1.70901e-08 3.83268e-10 0)
(-1.71215e-08 3.41248e-10 0)
(-1.71491e-08 2.99526e-10 0)
(-1.71729e-08 2.58108e-10 0)
(-1.71929e-08 2.17001e-10 0)
(-1.72093e-08 1.76213e-10 0)
(-1.72222e-08 1.35748e-10 0)
(-1.72316e-08 9.56121e-11 0)
(-1.72376e-08 5.58112e-11 0)
(-1.72403e-08 1.63497e-11 0)
(-2.69645e-10 3.62087e-09 0)
(-8.06381e-10 3.61819e-09 0)
(-1.33784e-09 3.6129e-09 0)
(-1.8637e-09 3.60508e-09 0)
(-2.38366e-09 3.59479e-09 0)
(-2.89743e-09 3.58212e-09 0)
(-3.40474e-09 3.56712e-09 0)
(-3.90534e-09 3.54989e-09 0)
(-4.39901e-09 3.53048e-09 0)
(-4.88553e-09 3.50896e-09 0)
(-5.36471e-09 3.48542e-09 0)
(-5.83636e-09 3.45993e-09 0)
(-6.30032e-09 3.43254e-09 0)
(-6.75644e-09 3.40334e-09 0)
(-7.20459e-09 3.37239e-09 0)
(-7.64464e-09 3.33976e-09 0)
(-8.07649e-09 3.30552e-09 0)
(-8.50004e-09 3.26973e-09 0)
(-8.91522e-09 3.23246e-09 0)
(-9.32194e-09 3.19377e-09 0)
(-9.72016e-09 3.15373e-09 0)
(-1.01098e-08 3.1124e-09 0)
(-1.04909e-08 3.06984e-09 0)
(-1.08634e-08 3.02612e-09 0)
(-1.12272e-08 2.98128e-09 0)
(-1.15824e-08 2.93539e-09 0)
(-1.19289e-08 2.8885e-09 0)
(-1.22669e-08 2.84067e-09 0)
(-1.25962e-08 2.79196e-09 0)
(-1.29169e-08 2.74241e-09 0)
(-1.3229e-08 2.69208e-09 0)
(-1.35327e-08 2.64101e-09 0)
(-1.38279e-08 2.58926e-09 0)
(-1.41146e-08 2.53688e-09 0)
(-1.4393e-08 2.4839e-09 0)
(-1.46631e-08 2.43038e-09 0)
(-1.4925e-08 2.37636e-09 0)
(-1.51787e-08 2.32189e-09 0)
(-1.54243e-08 2.26699e-09 0)
(-1.56619e-08 2.21172e-09 0)
(-1.58915e-08 2.15611e-09 0)
(-1.61134e-08 2.1002e-09 0)
(-1.63275e-08 2.04403e-09 0)
(-1.65339e-08 1.98763e-09 0)
(-1.67328e-08 1.93104e-09 0)
(-1.69242e-08 1.87428e-09 0)
(-1.71083e-08 1.8174e-09 0)
(-1.72851e-08 1.76042e-09 0)
(-1.74548e-08 1.70337e-09 0)
(-1.76174e-08 1.64629e-09 0)
(-1.77731e-08 1.58919e-09 0)
(-1.7922e-08 1.5321e-09 0)
(-1.80641e-08 1.47506e-09 0)
(-1.81997e-08 1.41808e-09 0)
(-1.83288e-08 1.36119e-09 0)
(-1.84514e-08 1.30442e-09 0)
(-1.85679e-08 1.24777e-09 0)
(-1.86781e-08 1.19128e-09 0)
(-1.87824e-08 1.13497e-09 0)
(-1.88807e-08 1.07884e-09 0)
(-1.89732e-08 1.02293e-09 0)
(-1.906e-08 9.6725e-10 0)
(-1.91412e-08 9.11814e-10 0)
(-1.92169e-08 8.56639e-10 0)
(-1.92873e-08 8.01741e-10 0)
(-1.93525e-08 7.47134e-10 0)
(-1.94125e-08 6.92832e-10 0)
(-1.94675e-08 6.38848e-10 0)
(-1.95175e-08 5.85193e-10 0)
(-1.95628e-08 5.31879e-10 0)
(-1.96034e-08 4.78919e-10 0)
(-1.96394e-08 4.26321e-10 0)
(-1.96709e-08 3.74095e-10 0)
(-1.9698e-08 3.22252e-10 0)
(-1.97208e-08 2.70798e-10 0)
(-1.97395e-08 2.19743e-10 0)
(-1.97541e-08 1.69094e-10 0)
(-1.97648e-08 1.18858e-10 0)
(-1.97716e-08 6.90409e-11 0)
(-1.97746e-08 1.96493e-11 0)
(-3.12685e-10 4.46142e-09 0)
(-9.35093e-10 4.45811e-09 0)
(-1.55138e-09 4.45159e-09 0)
(-2.16118e-09 4.44195e-09 0)
(-2.76412e-09 4.42926e-09 0)
(-3.35989e-09 4.41363e-09 0)
(-3.94816e-09 4.39515e-09 0)
(-4.52865e-09 4.37389e-09 0)
(-5.1011e-09 4.34996e-09 0)
(-5.66525e-09 4.32343e-09 0)
(-6.22088e-09 4.29441e-09 0)
(-6.76778e-09 4.26297e-09 0)
(-7.30575e-09 4.22921e-09 0)
(-7.83463e-09 4.1932e-09 0)
(-8.35425e-09 4.15504e-09 0)
(-8.86448e-09 4.11481e-09 0)
(-9.3652e-09 4.07259e-09 0)
(-9.85628e-09 4.02846e-09 0)
(-1.03376e-08 3.98251e-09 0)
(-1.08092e-08 3.93482e-09 0)
(-1.12709e-08 3.88545e-09 0)
(-1.17227e-08 3.8345e-09 0)
(-1.21644e-08 3.78203e-09 0)
(-1.25962e-08 3.72812e-09 0)
(-1.3018e-08 3.67284e-09 0)
(-1.34298e-08 3.61627e-09 0)
(-1.38315e-08 3.55846e-09 0)
(-1.42232e-08 3.4995e-09 0)
(-1.46049e-08 3.43944e-09 0)
(-1.49767e-08 3.37836e-09 0)
(-1.53385e-08 3.31631e-09 0)
(-1.56905e-08 3.25336e-09 0)
(-1.60326e-08 3.18957e-09 0)
(-1.63649e-08 3.125e-09 0)
(-1.66876e-08 3.0597e-09 0)
(-1.70006e-08 2.99373e-09 0)
(-1.73041e-08 2.92714e-09 0)
(-1.7598e-08 2.85999e-09 0)
(-1.78827e-08 2.79232e-09 0)
(-1.8158e-08 2.72419e-09 0)
(-1.84241e-08 2.65565e-09 0)
(-1.86811e-08 2.58674e-09 0)
(-1.89292e-08 2.51751e-09 0)
(-1.91684e-08 2.44799e-09 0)
(-1.93988e-08 2.37824e-09 0)
(-1.96205e-08 2.30829e-09 0)
(-1.98338e-08 2.23819e-09 0)
(-2.00386e-08 2.16796e-09 0)
(-2.02351e-08 2.09765e-09 0)
(-2.04235e-08 2.0273e-09 0)
(-2.06038e-08 1.95693e-09 0)
(-2.07762e-08 1.88658e-09 0)
(-2.09408e-08 1.81628e-09 0)
(-2.10978e-08 1.74606e-09 0)
(-2.12472e-08 1.67596e-09 0)
(-2.13893e-08 1.60599e-09 0)
(-2.15241e-08 1.53619e-09 0)
(-2.16517e-08 1.46658e-09 0)
(-2.17724e-08 1.39718e-09 0)
(-2.18861e-08 1.32803e-09 0)
(-2.19932e-08 1.25913e-09 0)
(-2.20936e-08 1.19052e-09 0)
(-2.21876e-08 1.12221e-09 0)
(-2.22752e-08 1.05423e-09 0)
(-2.23566e-08 9.86586e-10 0)
(-2.24319e-08 9.19303e-10 0)
(-2.25013e-08 8.52396e-10 0)
(-2.25648e-08 7.85882e-10 0)
(-2.26227e-08 7.19775e-10 0)
(-2.2675e-08 6.5409e-10 0)
(-2.27218e-08 5.8884e-10 0)
(-2.27634e-08 5.24038e-10 0)
(-2.27997e-08 4.59695e-10 0)
(-2.2831e-08 3.95824e-10 0)
(-2.28573e-08 3.32435e-10 0)
(-2.28788e-08 2.69537e-10 0)
(-2.28956e-08 2.0714e-10 0)
(-2.29077e-08 1.45253e-10 0)
(-2.29154e-08 8.38826e-11 0)
(-2.29188e-08 2.30374e-11 0)
(-3.65455e-10 5.44026e-09 0)
(-1.0929e-09 5.43623e-09 0)
(-1.8132e-09 5.42827e-09 0)
(-2.5259e-09 5.4165e-09 0)
(-3.23059e-09 5.40102e-09 0)
(-3.92689e-09 5.38194e-09 0)
(-4.61442e-09 5.35938e-09 0)
(-5.29286e-09 5.33344e-09 0)
(-5.96189e-09 5.30423e-09 0)
(-6.62121e-09 5.27186e-09 0)
(-7.27057e-09 5.23644e-09 0)
(-7.90971e-09 5.19807e-09 0)
(-8.53842e-09 5.15686e-09 0)
(-9.15649e-09 5.11292e-09 0)
(-9.76373e-09 5.06635e-09 0)
(-1.036e-08 5.01725e-09 0)
(-1.09451e-08 4.96573e-09 0)
(-1.1519e-08 4.91188e-09 0)
(-1.20814e-08 4.8558e-09 0)
(-1.26325e-08 4.7976e-09 0)
(-1.31719e-08 4.73736e-09 0)
(-1.36998e-08 4.67518e-09 0)
(-1.4216e-08 4.61115e-09 0)
(-1.47205e-08 4.54537e-09 0)
(-1.52133e-08 4.47792e-09 0)
(-1.56944e-08 4.40888e-09 0)
(-1.61637e-08 4.33835e-09 0)
(-1.66213e-08 4.26641e-09 0)
(-1.70673e-08 4.19313e-09 0)
(-1.75015e-08 4.1186e-09 0)
(-1.79242e-08 4.04289e-09 0)
(-1.83353e-08 3.96609e-09 0)
(-1.8735e-08 3.88825e-09 0)
(-1.91231e-08 3.80947e-09 0)
(-1.95e-08 3.7298e-09 0)
(-1.98656e-08 3.64931e-09 0)
(-2.022e-08 3.56807e-09 0)
(-2.05633e-08 3.48615e-09 0)
(-2.08957e-08 3.4036e-09 0)
(-2.12172e-08 3.32049e-09 0)
(-2.15279e-08 3.23687e-09 0)
(-2.18281e-08 3.15281e-09 0)
(-2.21177e-08 3.06835e-09 0)
(-2.23969e-08 2.98355e-09 0)
(-2.26659e-08 2.89847e-09 0)
(-2.29248e-08 2.81314e-09 0)
(-2.31737e-08 2.72763e-09 0)
(-2.34128e-08 2.64197e-09 0)
(-2.36422e-08 2.55621e-09 0)
(-2.3862e-08 2.4704e-09 0)
(-2.40725e-08 2.38457e-09 0)
(-2.42737e-08 2.29877e-09 0)
(-2.44658e-08 2.21303e-09 0)
(-2.46489e-08 2.12739e-09 0)
(-2.48232e-08 2.04188e-09 0)
(-2.49889e-08 1.95655e-09 0)
(-2.51462e-08 1.87142e-09 0)
(-2.5295e-08 1.78653e-09 0)
(-2.54357e-08 1.7019e-09 0)
(-2.55684e-08 1.61756e-09 0)
(-2.56932e-08 1.53355e-09 0)
(-2.58103e-08 1.44988e-09 0)
(-2.59198e-08 1.36658e-09 0)
(-2.60219e-08 1.28368e-09 0)
(-2.61167e-08 1.2012e-09 0)
(-2.62045e-08 1.11915e-09 0)
(-2.62853e-08 1.03757e-09 0)
(-2.63593e-08 9.56467e-10 0)
(-2.64266e-08 8.75862e-10 0)
(-2.64874e-08 7.95772e-10 0)
(-2.65419e-08 7.16215e-10 0)
(-2.65902e-08 6.37205e-10 0)
(-2.66324e-08 5.58757e-10 0)
(-2.66687e-08 4.80884e-10 0)
(-2.66992e-08 4.03601e-10 0)
(-2.6724e-08 3.26917e-10 0)
(-2.67434e-08 2.50846e-10 0)
(-2.67574e-08 1.75397e-10 0)
(-2.67661e-08 1.0058e-10 0)
(-2.67698e-08 2.64044e-11 0)
(-4.29619e-10 6.58788e-09 0)
(-1.28478e-09 6.583e-09 0)
(-2.13154e-09 6.57335e-09 0)
(-2.96937e-09 6.55908e-09 0)
(-3.79777e-09 6.54031e-09 0)
(-4.6163e-09 6.51719e-09 0)
(-5.42452e-09 6.48984e-09 0)
(-6.22205e-09 6.45839e-09 0)
(-7.0085e-09 6.42299e-09 0)
(-7.78353e-09 6.38375e-09 0)
(-8.54684e-09 6.34081e-09 0)
(-9.29813e-09 6.2943e-09 0)
(-1.00371e-08 6.24435e-09 0)
(-1.07636e-08 6.19109e-09 0)
(-1.14774e-08 6.13464e-09 0)
(-1.21782e-08 6.07513e-09 0)
(-1.28659e-08 6.01268e-09 0)
(-1.35404e-08 5.94741e-09 0)
(-1.42015e-08 5.87944e-09 0)
(-1.48491e-08 5.80889e-09 0)
(-1.54831e-08 5.73588e-09 0)
(-1.61034e-08 5.66052e-09 0)
(-1.671e-08 5.58292e-09 0)
(-1.73029e-08 5.50319e-09 0)
(-1.7882e-08 5.42144e-09 0)
(-1.84473e-08 5.33778e-09 0)
(-1.89987e-08 5.2523e-09 0)
(-1.95364e-08 5.16511e-09 0)
(-2.00604e-08 5.07631e-09 0)
(-2.05706e-08 4.98599e-09 0)
(-2.10672e-08 4.89425e-09 0)
(-2.15502e-08 4.80118e-09 0)
(-2.20196e-08 4.70686e-09 0)
(-2.24756e-08 4.61139e-09 0)
(-2.29183e-08 4.51486e-09 0)
(-2.33477e-08 4.41733e-09 0)
(-2.3764e-08 4.3189e-09 0)
(-2.41672e-08 4.21963e-09 0)
(-2.45576e-08 4.11962e-09 0)
(-2.49351e-08 4.01892e-09 0)
(-2.53e-08 3.91761e-09 0)
(-2.56525e-08 3.81577e-09 0)
(-2.59925e-08 3.71344e-09 0)
(-2.63204e-08 3.61071e-09 0)
(-2.66362e-08 3.50763e-09 0)
(-2.69401e-08 3.40427e-09 0)
(-2.72323e-08 3.30068e-09 0)
(-2.75129e-08 3.19691e-09 0)
(-2.77822e-08 3.09303e-09 0)
(-2.80402e-08 2.98908e-09 0)
(-2.82871e-08 2.88511e-09 0)
(-2.85232e-08 2.78118e-09 0)
(-2.87486e-08 2.67733e-09 0)
(-2.89634e-08 2.5736e-09 0)
(-2.9168e-08 2.47004e-09 0)
(-2.93623e-08 2.36669e-09 0)
(-2.95467e-08 2.26358e-09 0)
(-2.97213e-08 2.16077e-09 0)
(-2.98862e-08 2.05827e-09 0)
(-3.00418e-08 1.95613e-09 0)
(-3.01881e-08 1.85439e-09 0)
(-3.03253e-08 1.75306e-09 0)
(-3.04536e-08 1.65219e-09 0)
(-3.05732e-08 1.5518e-09 0)
(-3.06843e-08 1.45192e-09 0)
(-3.0787e-08 1.35257e-09 0)
(-3.08816e-08 1.25378e-09 0)
(-3.09682e-08 1.15558e-09 0)
(-3.1047e-08 1.05798e-09 0)
(-3.11181e-08 9.61007e-10 0)
(-3.11818e-08 8.6468e-10 0)
(-3.12381e-08 7.69018e-10 0)
(-3.12874e-08 6.74038e-10 0)
(-3.13297e-08 5.79757e-10 0)
(-3.13652e-08 4.86191e-10 0)
(-3.1394e-08 3.93354e-10 0)
(-3.14164e-08 3.01259e-10 0)
(-3.14325e-08 2.09919e-10 0)
(-3.14425e-08 1.19347e-10 0)
(-3.14465e-08 2.95515e-11 0)
(-5.07206e-10 7.94012e-09 0)
(-1.51681e-09 7.93422e-09 0)
(-2.51648e-09 7.92258e-09 0)
(-3.50561e-09 7.90535e-09 0)
(-4.4836e-09 7.88271e-09 0)
(-5.44993e-09 7.8548e-09 0)
(-6.40409e-09 7.8218e-09 0)
(-7.34559e-09 7.78385e-09 0)
(-8.27402e-09 7.74112e-09 0)
(-9.18895e-09 7.69377e-09 0)
(-1.009e-08 7.64196e-09 0)
(-1.09769e-08 7.58583e-09 0)
(-1.18493e-08 7.52556e-09 0)
(-1.27068e-08 7.46129e-09 0)
(-1.35493e-08 7.39318e-09 0)
(-1.43766e-08 7.32137e-09 0)
(-1.51883e-08 7.24601e-09 0)
(-1.59844e-08 7.16726e-09 0)
(-1.67646e-08 7.08525e-09 0)
(-1.75289e-08 7.00013e-09 0)
(-1.82772e-08 6.91204e-09 0)
(-1.90093e-08 6.82111e-09 0)
(-1.97252e-08 6.72749e-09 0)
(-2.04248e-08 6.6313e-09 0)
(-2.11081e-08 6.53267e-09 0)
(-2.17751e-08 6.43174e-09 0)
(-2.24259e-08 6.32862e-09 0)
(-2.30603e-08 6.22343e-09 0)
(-2.36785e-08 6.11631e-09 0)
(-2.42804e-08 6.00735e-09 0)
(-2.48662e-08 5.89669e-09 0)
(-2.5436e-08 5.78442e-09 0)
(-2.59898e-08 5.67065e-09 0)
(-2.65277e-08 5.5555e-09 0)
(-2.70498e-08 5.43906e-09 0)
(-2.75563e-08 5.32143e-09 0)
(-2.80472e-08 5.2027e-09 0)
(-2.85227e-08 5.08299e-09 0)
(-2.8983e-08 4.96236e-09 0)
(-2.94282e-08 4.84092e-09 0)
(-2.98585e-08 4.71874e-09 0)
(-3.0274e-08 4.59592e-09 0)
(-3.06749e-08 4.47252e-09 0)
(-3.10614e-08 4.34864e-09 0)
(-3.14337e-08 4.22434e-09 0)
(-3.17919e-08 4.0997e-09 0)
(-3.21363e-08 3.97479e-09 0)
(-3.2467e-08 3.84967e-09 0)
(-3.27842e-08 3.72441e-09 0)
(-3.30882e-08 3.59908e-09 0)
(-3.33792e-08 3.47373e-09 0)
(-3.36573e-08 3.34842e-09 0)
(-3.39228e-08 3.22322e-09 0)
(-3.41758e-08 3.09817e-09 0)
(-3.44167e-08 2.97332e-09 0)
(-3.46455e-08 2.84873e-09 0)
(-3.48626e-08 2.72444e-09 0)
(-3.50681e-08 2.60049e-09 0)
(-3.52623e-08 2.47695e-09 0)
(-3.54453e-08 2.35383e-09 0)
(-3.56174e-08 2.23119e-09 0)
(-3.57788e-08 2.10906e-09 0)
(-3.59297e-08 1.98748e-09 0)
(-3.60704e-08 1.86648e-09 0)
(-3.6201e-08 1.7461e-09 0)
(-3.63217e-08 1.62637e-09 0)
(-3.64328e-08 1.50731e-09 0)
(-3.65345e-08 1.38896e-09 0)
(-3.66269e-08 1.27134e-09 0)
(-3.67103e-08 1.15448e-09 0)
(-3.6785e-08 1.0384e-09 0)
(-3.6851e-08 9.23127e-10 0)
(-3.69086e-08 8.08677e-10 0)
(-3.6958e-08 6.95072e-10 0)
(-3.69994e-08 5.8233e-10 0)
(-3.7033e-08 4.7047e-10 0)
(-3.7059e-08 3.59507e-10 0)
(-3.70775e-08 2.49456e-10 0)
(-3.70888e-08 1.40332e-10 0)
(-3.70931e-08 3.21479e-11 0)
(-6.00682e-10 9.53926e-09 0)
(-1.79635e-09 9.53216e-09 0)
(-2.98025e-09 9.51816e-09 0)
(-4.15166e-09 9.49744e-09 0)
(-5.30988e-09 9.47019e-09 0)
(-6.45426e-09 9.43661e-09 0)
(-7.58422e-09 9.3969e-09 0)
(-8.69918e-09 9.35124e-09 0)
(-9.79864e-09 9.29983e-09 0)
(-1.08821e-08 9.24286e-09 0)
(-1.19491e-08 9.18052e-09 0)
(-1.29993e-08 9.113e-09 0)
(-1.40323e-08 9.04049e-09 0)
(-1.50477e-08 8.96316e-09 0)
(-1.60453e-08 8.88122e-09 0)
(-1.70247e-08 8.79483e-09 0)
(-1.79858e-08 8.70417e-09 0)
(-1.89283e-08 8.60943e-09 0)
(-1.98521e-08 8.51078e-09 0)
(-2.07569e-08 8.40838e-09 0)
(-2.16427e-08 8.30241e-09 0)
(-2.25094e-08 8.19304e-09 0)
(-2.33568e-08 8.08042e-09 0)
(-2.41849e-08 7.96472e-09 0)
(-2.49937e-08 7.84609e-09 0)
(-2.57832e-08 7.72469e-09 0)
(-2.65533e-08 7.60066e-09 0)
(-2.73041e-08 7.47415e-09 0)
(-2.80357e-08 7.34531e-09 0)
(-2.8748e-08 7.21428e-09 0)
(-2.94412e-08 7.08119e-09 0)
(-3.01153e-08 6.94618e-09 0)
(-3.07705e-08 6.80937e-09 0)
(-3.14069e-08 6.67089e-09 0)
(-3.20246e-08 6.53087e-09 0)
(-3.26237e-08 6.38943e-09 0)
(-3.32044e-08 6.24667e-09 0)
(-3.37668e-08 6.10272e-09 0)
(-3.43112e-08 5.95769e-09 0)
(-3.48377e-08 5.81168e-09 0)
(-3.53465e-08 5.66479e-09 0)
(-3.58378e-08 5.51713e-09 0)
(-3.63118e-08 5.36878e-09 0)
(-3.67687e-08 5.21986e-09 0)
(-3.72088e-08 5.07043e-09 0)
(-3.76322e-08 4.9206e-09 0)
(-3.80392e-08 4.77045e-09 0)
(-3.84301e-08 4.62006e-09 0)
(-3.8805e-08 4.4695e-09 0)
(-3.91641e-08 4.31886e-09 0)
(-3.95079e-08 4.16821e-09 0)
(-3.98364e-08 4.01761e-09 0)
(-4.01499e-08 3.86713e-09 0)
(-4.04488e-08 3.71685e-09 0)
(-4.07332e-08 3.56681e-09 0)
(-4.10034e-08 3.41709e-09 0)
(-4.12596e-08 3.26773e-09 0)
(-4.15021e-08 3.1188e-09 0)
(-4.17312e-08 2.97035e-09 0)
(-4.19472e-08 2.82242e-09 0)
(-4.21502e-08 2.67506e-09 0)
(-4.23405e-08 2.52833e-09 0)
(-4.25184e-08 2.38226e-09 0)
(-4.26842e-08 2.23689e-09 0)
(-4.2838e-08 2.09227e-09 0)
(-4.29802e-08 1.94843e-09 0)
(-4.3111e-08 1.80541e-09 0)
(-4.32306e-08 1.66324e-09 0)
(-4.33393e-08 1.52195e-09 0)
(-4.34374e-08 1.38158e-09 0)
(-4.3525e-08 1.24215e-09 0)
(-4.36025e-08 1.10369e-09 0)
(-4.367e-08 9.66231e-10 0)
(-4.37278e-08 8.29787e-10 0)
(-4.37761e-08 6.94384e-10 0)
(-4.38152e-08 5.60042e-10 0)
(-4.38453e-08 4.26783e-10 0)
(-4.38666e-08 2.94623e-10 0)
(-4.38794e-08 1.63579e-10 0)
(-4.38838e-08 3.36669e-11 0)
(-7.13033e-10 1.14355e-08 0)
(-2.13234e-09 1.1427e-08 0)
(-3.53767e-09 1.14102e-08 0)
(-4.92815e-09 1.13853e-08 0)
(-6.30297e-09 1.13526e-08 0)
(-7.66136e-09 1.13122e-08 0)
(-9.0026e-09 1.12645e-08 0)
(-1.0326e-08 1.12097e-08 0)
(-1.1631e-08 1.1148e-08 0)
(-1.2917e-08 1.10796e-08 0)
(-1.41834e-08 1.10047e-08 0)
(-1.54299e-08 1.09236e-08 0)
(-1.66558e-08 1.08365e-08 0)
(-1.78609e-08 1.07437e-08 0)
(-1.90448e-08 1.06453e-08 0)
(-2.02071e-08 1.05416e-08 0)
(-2.13476e-08 1.04327e-08 0)
(-2.2466e-08 1.0319e-08 0)
(-2.35621e-08 1.02005e-08 0)
(-2.46357e-08 1.00776e-08 0)
(-2.56867e-08 9.95034e-09 0)
(-2.67149e-08 9.81903e-09 0)
(-2.77203e-08 9.68383e-09 0)
(-2.87027e-08 9.54493e-09 0)
(-2.96621e-08 9.40252e-09 0)
(-3.05986e-08 9.25678e-09 0)
(-3.1512e-08 9.1079e-09 0)
(-3.24025e-08 8.95604e-09 0)
(-3.32701e-08 8.8014e-09 0)
(-3.41149e-08 8.64412e-09 0)
(-3.49369e-08 8.48438e-09 0)
(-3.57363e-08 8.32233e-09 0)
(-3.65131e-08 8.15814e-09 0)
(-3.72676e-08 7.99195e-09 0)
(-3.79998e-08 7.82392e-09 0)
(-3.871e-08 7.65418e-09 0)
(-3.93983e-08 7.48288e-09 0)
(-4.0065e-08 7.31015e-09 0)
(-4.07101e-08 7.13612e-09 0)
(-4.1334e-08 6.96093e-09 0)
(-4.19369e-08 6.78469e-09 0)
(-4.2519e-08 6.60753e-09 0)
(-4.30806e-08 6.42955e-09 0)
(-4.36218e-08 6.25089e-09 0)
(-4.41431e-08 6.07164e-09 0)
(-4.46445e-08 5.8919e-09 0)
(-4.51265e-08 5.71179e-09 0)
(-4.55893e-08 5.53139e-09 0)
(-4.60331e-08 5.35081e-09 0)
(-4.64583e-08 5.17012e-09 0)
(-4.68651e-08 4.98943e-09 0)
(-4.72539e-08 4.80882e-09 0)
(-4.76249e-08 4.62836e-09 0)
(-4.79785e-08 4.44813e-09 0)
(-4.83149e-08 4.26821e-09 0)
(-4.86344e-08 4.08867e-09 0)
(-4.89374e-08 3.90958e-09 0)
(-4.92241e-08 3.731e-09 0)