/*--------------------------------*- C++ -*----------------------------------*\
  =========                 |
  \\      /  F ield         | OpenFOAM: The Open Source CFD Toolbox
   \\    /   O peration     | Website:  https://openfoam.org
    \\  /    A nd           | Version:  8
     \\/     M anipulation  |
\*---------------------------------------------------------------------------*/
FoamFile
{
    version     2.0;
    format      ascii;
    class       volVectorField;
    location    "1000";
    object      Ub;
}
// * * * * * * * * * * * * * * * * * * * * * * * * * * * * * * * * * * * * * //

dimensions      [0 1 -1 0 0 0 0];

internalField   nonuniform List<vector> 
12800
(
(-2.78514e-21 -4.92973e-13 0)
(-8.32905e-21 -4.92973e-13 0)
(-1.38185e-20 -4.92973e-13 0)
(-1.92501e-20 -4.92973e-13 0)
(-2.46209e-20 -4.92973e-13 0)
(-2.99277e-20 -4.92973e-13 0)
(-3.5168e-20 -4.92973e-13 0)
(-4.03391e-20 -4.92973e-13 0)
(-4.54387e-20 -4.92973e-13 0)
(-5.04646e-20 -4.92973e-13 0)
(-5.54148e-20 -4.92973e-13 0)
(-6.02874e-20 -4.92973e-13 0)
(-6.50807e-20 -4.92973e-13 0)
(-6.97932e-20 -4.92973e-13 0)
(-7.44235e-20 -4.92973e-13 0)
(-7.89704e-20 -4.92973e-13 0)
(-8.34327e-20 -4.92973e-13 0)
(-8.78095e-20 -4.92973e-13 0)
(-9.21e-20 -4.92973e-13 0)
(-9.63034e-20 -4.92973e-13 0)
(-1.00419e-19 -4.92973e-13 0)
(-1.04447e-19 -4.92973e-13 0)
(-1.08386e-19 -4.92973e-13 0)
(-1.12236e-19 -4.92973e-13 0)
(-1.15997e-19 -4.92973e-13 0)
(-1.19669e-19 -4.92973e-13 0)
(-1.23252e-19 -4.92973e-13 0)
(-1.26746e-19 -4.92973e-13 0)
(-1.30152e-19 -4.92973e-13 0)
(-1.33468e-19 -4.92973e-13 0)
(-1.36697e-19 -4.92973e-13 0)
(-1.39838e-19 -4.92973e-13 0)
(-1.42891e-19 -4.92973e-13 0)
(-1.45858e-19 -4.92973e-13 0)
(-1.48738e-19 -4.92973e-13 0)
(-1.51533e-19 -4.92973e-13 0)
(-1.54242e-19 -4.92973e-13 0)
(-1.56868e-19 -4.92973e-13 0)
(-1.5941e-19 -4.92973e-13 0)
(-1.61869e-19 -4.92973e-13 0)
(-1.64247e-19 -4.92973e-13 0)
(-1.66544e-19 -4.92973e-13 0)
(-1.68761e-19 -4.92973e-13 0)
(-1.70899e-19 -4.92973e-13 0)
(-1.72959e-19 -4.92973e-13 0)
(-1.74942e-19 -4.92973e-13 0)
(-1.76849e-19 -4.92973e-13 0)
(-1.78681e-19 -4.92973e-13 0)
(-1.8044e-19 -4.92973e-13 0)
(-1.82126e-19 -4.92973e-13 0)
(-1.8374e-19 -4.92973e-13 0)
(-1.85284e-19 -4.92973e-13 0)
(-1.86758e-19 -4.92973e-13 0)
(-1.88164e-19 -4.92973e-13 0)
(-1.89503e-19 -4.92973e-13 0)
(-1.90776e-19 -4.92973e-13 0)
(-1.91985e-19 -4.92973e-13 0)
(-1.9313e-19 -4.92973e-13 0)
(-1.94212e-19 -4.92973e-13 0)
(-1.95234e-19 -4.92973e-13 0)
(-1.96195e-19 -4.92973e-13 0)
(-1.97097e-19 -4.92973e-13 0)
(-1.97942e-19 -4.92973e-13 0)
(-1.9873e-19 -4.92973e-13 0)
(-1.99463e-19 -4.92973e-13 0)
(-2.00141e-19 -4.92973e-13 0)
(-2.00767e-19 -4.92973e-13 0)
(-2.0134e-19 -4.92973e-13 0)
(-2.01863e-19 -4.92973e-13 0)
(-2.02336e-19 -4.92973e-13 0)
(-2.0276e-19 -4.92973e-13 0)
(-2.03137e-19 -4.92973e-13 0)
(-2.03468e-19 -4.92973e-13 0)
(-2.03753e-19 -4.92973e-13 0)
(-2.03994e-19 -4.92973e-13 0)
(-2.04192e-19 -4.92973e-13 0)
(-2.04348e-19 -4.92973e-13 0)
(-2.04462e-19 -4.92973e-13 0)
(-2.04537e-19 -4.92973e-13 0)
(-2.04569e-19 -4.92973e-13 0)
(-2.87112e-21 -4.92961e-13 0)
(-8.58618e-21 -4.92961e-13 0)
(-1.42451e-20 -4.92961e-13 0)
(-1.98445e-20 -4.92961e-13 0)
(-2.5381e-20 -4.92961e-13 0)
(-3.08517e-20 -4.92961e-13 0)
(-3.62537e-20 -4.92961e-13 0)
(-4.15845e-20 -4.92961e-13 0)
(-4.68415e-20 -4.92961e-13 0)
(-5.20225e-20 -4.92961e-13 0)
(-5.71255e-20 -4.92961e-13 0)
(-6.21484e-20 -4.92961e-13 0)
(-6.70897e-20 -4.92961e-13 0)
(-7.19476e-20 -4.92961e-13 0)
(-7.67208e-20 -4.92961e-13 0)
(-8.1408e-20 -4.92961e-13 0)
(-8.6008e-20 -4.92961e-13 0)
(-9.05198e-20 -4.92961e-13 0)
(-9.49426e-20 -4.92961e-13 0)
(-9.92756e-20 -4.92961e-13 0)
(-1.03518e-19 -4.92961e-13 0)
(-1.0767e-19 -4.92961e-13 0)
(-1.1173e-19 -4.92961e-13 0)
(-1.15699e-19 -4.92961e-13 0)
(-1.19577e-19 -4.92961e-13 0)
(-1.23362e-19 -4.92961e-13 0)
(-1.27055e-19 -4.92961e-13 0)
(-1.30657e-19 -4.92961e-13 0)
(-1.34167e-19 -4.92961e-13 0)
(-1.37586e-19 -4.92961e-13 0)
(-1.40914e-19 -4.92961e-13 0)
(-1.44152e-19 -4.92961e-13 0)
(-1.47299e-19 -4.92961e-13 0)
(-1.50357e-19 -4.92961e-13 0)
(-1.53326e-19 -4.92961e-13 0)
(-1.56207e-19 -4.92961e-13 0)
(-1.59e-19 -4.92961e-13 0)
(-1.61706e-19 -4.92961e-13 0)
(-1.64327e-19 -4.92961e-13 0)
(-1.66862e-19 -4.92961e-13 0)
(-1.69313e-19 -4.92961e-13 0)
(-1.7168e-19 -4.92961e-13 0)
(-1.73965e-19 -4.92961e-13 0)
(-1.76169e-19 -4.92961e-13 0)
(-1.78292e-19 -4.92961e-13 0)
(-1.80336e-19 -4.92961e-13 0)
(-1.82302e-19 -4.92961e-13 0)
(-1.8419e-19 -4.92961e-13 0)
(-1.86003e-19 -4.92961e-13 0)
(-1.8774e-19 -4.92961e-13 0)
(-1.89404e-19 -4.92961e-13 0)
(-1.90995e-19 -4.92961e-13 0)
(-1.92515e-19 -4.92961e-13 0)
(-1.93964e-19 -4.92961e-13 0)
(-1.95344e-19 -4.92961e-13 0)
(-1.96656e-19 -4.92961e-13 0)
(-1.97902e-19 -4.92961e-13 0)
(-1.99082e-19 -4.92961e-13 0)
(-2.00197e-19 -4.92961e-13 0)
(-2.0125e-19 -4.92961e-13 0)
(-2.02241e-19 -4.92961e-13 0)
(-2.03171e-19 -4.92961e-13 0)
(-2.04041e-19 -4.92961e-13 0)
(-2.04853e-19 -4.92961e-13 0)
(-2.05608e-19 -4.92961e-13 0)
(-2.06307e-19 -4.92961e-13 0)
(-2.06952e-19 -4.92961e-13 0)
(-2.07543e-19 -4.92961e-13 0)
(-2.08081e-19 -4.92961e-13 0)
(-2.08568e-19 -4.92961e-13 0)
(-2.09006e-19 -4.92961e-13 0)
(-2.09394e-19 -4.92961e-13 0)
(-2.09734e-19 -4.92961e-13 0)
(-2.10028e-19 -4.92961e-13 0)
(-2.10276e-19 -4.92961e-13 0)
(-2.1048e-19 -4.92961e-13 0)
(-2.10641e-19 -4.92961e-13 0)
(-2.10759e-19 -4.92961e-13 0)
(-2.10835e-19 -4.92961e-13 0)
(-2.10872e-19 -4.92961e-13 0)
(-3.04604e-21 -4.92961e-13 0)
(-9.10929e-21 -4.92961e-13 0)
(-1.5113e-20 -4.92961e-13 0)
(-2.10534e-20 -4.92961e-13 0)
(-2.69273e-20 -4.92961e-13 0)
(-3.27312e-20 -4.92961e-13 0)
(-3.84623e-20 -4.92961e-13 0)
(-4.41178e-20 -4.92961e-13 0)
(-4.9695e-20 -4.92961e-13 0)
(-5.51916e-20 -4.92961e-13 0)
(-6.06054e-20 -4.92961e-13 0)
(-6.59343e-20 -4.92961e-13 0)
(-7.11764e-20 -4.92961e-13 0)
(-7.63302e-20 -4.92961e-13 0)
(-8.1394e-20 -4.92961e-13 0)
(-8.63666e-20 -4.92961e-13 0)
(-9.12466e-20 -4.92961e-13 0)
(-9.60331e-20 -4.92961e-13 0)
(-1.00725e-19 -4.92961e-13 0)
(-1.05322e-19 -4.92961e-13 0)
(-1.09823e-19 -4.92961e-13 0)
(-1.14227e-19 -4.92961e-13 0)
(-1.18535e-19 -4.92961e-13 0)
(-1.22745e-19 -4.92961e-13 0)
(-1.26858e-19 -4.92961e-13 0)
(-1.30874e-19 -4.92961e-13 0)
(-1.34792e-19 -4.92961e-13 0)
(-1.38613e-19 -4.92961e-13 0)
(-1.42336e-19 -4.92961e-13 0)
(-1.45963e-19 -4.92961e-13 0)
(-1.49493e-19 -4.92961e-13 0)
(-1.52928e-19 -4.92961e-13 0)
(-1.56266e-19 -4.92961e-13 0)
(-1.5951e-19 -4.92961e-13 0)
(-1.62659e-19 -4.92961e-13 0)
(-1.65715e-19 -4.92961e-13 0)
(-1.68678e-19 -4.92961e-13 0)
(-1.71548e-19 -4.92961e-13 0)
(-1.74328e-19 -4.92961e-13 0)
(-1.77017e-19 -4.92961e-13 0)
(-1.79616e-19 -4.92961e-13 0)
(-1.82128e-19 -4.92961e-13 0)
(-1.84551e-19 -4.92961e-13 0)
(-1.86889e-19 -4.92961e-13 0)
(-1.89141e-19 -4.92961e-13 0)
(-1.91309e-19 -4.92961e-13 0)
(-1.93393e-19 -4.92961e-13 0)
(-1.95396e-19 -4.92961e-13 0)
(-1.97319e-19 -4.92961e-13 0)
(-1.99161e-19 -4.92961e-13 0)
(-2.00926e-19 -4.92961e-13 0)
(-2.02613e-19 -4.92961e-13 0)
(-2.04225e-19 -4.92961e-13 0)
(-2.05762e-19 -4.92961e-13 0)
(-2.07225e-19 -4.92961e-13 0)
(-2.08617e-19 -4.92961e-13 0)
(-2.09937e-19 -4.92961e-13 0)
(-2.11189e-19 -4.92961e-13 0)
(-2.12372e-19 -4.92961e-13 0)
(-2.13488e-19 -4.92961e-13 0)
(-2.14538e-19 -4.92961e-13 0)
(-2.15524e-19 -4.92961e-13 0)
(-2.16447e-19 -4.92961e-13 0)
(-2.17308e-19 -4.92961e-13 0)
(-2.18108e-19 -4.92961e-13 0)
(-2.18849e-19 -4.92961e-13 0)
(-2.19533e-19 -4.92961e-13 0)
(-2.20159e-19 -4.92961e-13 0)
(-2.2073e-19 -4.92961e-13 0)
(-2.21246e-19 -4.92961e-13 0)
(-2.21709e-19 -4.92961e-13 0)
(-2.2212e-19 -4.92961e-13 0)
(-2.22481e-19 -4.92961e-13 0)
(-2.22792e-19 -4.92961e-13 0)
(-2.23055e-19 -4.92961e-13 0)
(-2.23271e-19 -4.92961e-13 0)
(-2.2344e-19 -4.92961e-13 0)
(-2.23565e-19 -4.92961e-13 0)
(-2.23646e-19 -4.92961e-13 0)
(-2.23684e-19 -4.92961e-13 0)
(-3.31522e-21 -4.92961e-13 0)
(-9.91427e-21 -4.92961e-13 0)
(-1.64485e-20 -4.92961e-13 0)
(-2.29139e-20 -4.92961e-13 0)
(-2.93067e-20 -4.92961e-13 0)
(-3.56235e-20 -4.92961e-13 0)
(-4.18611e-20 -4.92961e-13 0)
(-4.80162e-20 -4.92961e-13 0)
(-5.40862e-20 -4.92961e-13 0)
(-6.00684e-20 -4.92961e-13 0)
(-6.59604e-20 -4.92961e-13 0)
(-7.17601e-20 -4.92961e-13 0)
(-7.74653e-20 -4.92961e-13 0)
(-8.30742e-20 -4.92961e-13 0)
(-8.85853e-20 -4.92961e-13 0)
(-9.3997e-20 -4.92961e-13 0)
(-9.9308e-20 -4.92961e-13 0)
(-1.04517e-19 -4.92961e-13 0)
(-1.09623e-19 -4.92961e-13 0)
(-1.14626e-19 -4.92961e-13 0)
(-1.19524e-19 -4.92961e-13 0)
(-1.24317e-19 -4.92961e-13 0)
(-1.29005e-19 -4.92961e-13 0)
(-1.33587e-19 -4.92961e-13 0)
(-1.38063e-19 -4.92961e-13 0)
(-1.42433e-19 -4.92961e-13 0)
(-1.46696e-19 -4.92961e-13 0)
(-1.50854e-19 -4.92961e-13 0)
(-1.54906e-19 -4.92961e-13 0)
(-1.58853e-19 -4.92961e-13 0)
(-1.62694e-19 -4.92961e-13 0)
(-1.66431e-19 -4.92961e-13 0)
(-1.70064e-19 -4.92961e-13 0)
(-1.73594e-19 -4.92961e-13 0)
(-1.77021e-19 -4.92961e-13 0)
(-1.80345e-19 -4.92961e-13 0)
(-1.83569e-19 -4.92961e-13 0)
(-1.86693e-19 -4.92961e-13 0)
(-1.89717e-19 -4.92961e-13 0)
(-1.92642e-19 -4.92961e-13 0)
(-1.95471e-19 -4.92961e-13 0)
(-1.98203e-19 -4.92961e-13 0)
(-2.0084e-19 -4.92961e-13 0)
(-2.03383e-19 -4.92961e-13 0)
(-2.05833e-19 -4.92961e-13 0)
(-2.08191e-19 -4.92961e-13 0)
(-2.10459e-19 -4.92961e-13 0)
(-2.12638e-19 -4.92961e-13 0)
(-2.14729e-19 -4.92961e-13 0)
(-2.16734e-19 -4.92961e-13 0)
(-2.18653e-19 -4.92961e-13 0)
(-2.20489e-19 -4.92961e-13 0)
(-2.22241e-19 -4.92961e-13 0)
(-2.23913e-19 -4.92961e-13 0)
(-2.25505e-19 -4.92961e-13 0)
(-2.27019e-19 -4.92961e-13 0)
(-2.28455e-19 -4.92961e-13 0)
(-2.29816e-19 -4.92961e-13 0)
(-2.31102e-19 -4.92961e-13 0)
(-2.32316e-19 -4.92961e-13 0)
(-2.33458e-19 -4.92961e-13 0)
(-2.3453e-19 -4.92961e-13 0)
(-2.35534e-19 -4.92961e-13 0)
(-2.3647e-19 -4.92961e-13 0)
(-2.3734e-19 -4.92961e-13 0)
(-2.38146e-19 -4.92961e-13 0)
(-2.38888e-19 -4.92961e-13 0)
(-2.39569e-19 -4.92961e-13 0)
(-2.40189e-19 -4.92961e-13 0)
(-2.4075e-19 -4.92961e-13 0)
(-2.41253e-19 -4.92961e-13 0)
(-2.417e-19 -4.92961e-13 0)
(-2.42092e-19 -4.92961e-13 0)
(-2.4243e-19 -4.92961e-13 0)
(-2.42715e-19 -4.92961e-13 0)
(-2.42949e-19 -4.92961e-13 0)
(-2.43132e-19 -4.92961e-13 0)
(-2.43267e-19 -4.92961e-13 0)
(-2.43355e-19 -4.92961e-13 0)
(-2.43396e-19 -4.92961e-13 0)
(-3.68705e-21 -4.92961e-13 0)
(-1.10262e-20 -4.92961e-13 0)
(-1.82933e-20 -4.92961e-13 0)
(-2.54838e-20 -4.92961e-13 0)
(-3.25936e-20 -4.92961e-13 0)
(-3.96189e-20 -4.92961e-13 0)
(-4.65559e-20 -4.92961e-13 0)
(-5.34013e-20 -4.92961e-13 0)
(-6.0152e-20 -4.92961e-13 0)
(-6.6805e-20 -4.92961e-13 0)
(-7.33576e-20 -4.92961e-13 0)
(-7.98075e-20 -4.92961e-13 0)
(-8.61523e-20 -4.92961e-13 0)
(-9.239e-20 -4.92961e-13 0)
(-9.85189e-20 -4.92961e-13 0)
(-1.04537e-19 -4.92961e-13 0)
(-1.10443e-19 -4.92961e-13 0)
(-1.16236e-19 -4.92961e-13 0)
(-1.21915e-19 -4.92961e-13 0)
(-1.27478e-19 -4.92961e-13 0)
(-1.32925e-19 -4.92961e-13 0)
(-1.38255e-19 -4.92961e-13 0)
(-1.43467e-19 -4.92961e-13 0)
(-1.48562e-19 -4.92961e-13 0)
(-1.53539e-19 -4.92961e-13 0)
(-1.58399e-19 -4.92961e-13 0)
(-1.6314e-19 -4.92961e-13 0)
(-1.67763e-19 -4.92961e-13 0)
(-1.72268e-19 -4.92961e-13 0)
(-1.76657e-19 -4.92961e-13 0)
(-1.80928e-19 -4.92961e-13 0)
(-1.85083e-19 -4.92961e-13 0)
(-1.89122e-19 -4.92961e-13 0)
(-1.93046e-19 -4.92961e-13 0)
(-1.96856e-19 -4.92961e-13 0)
(-2.00553e-19 -4.92961e-13 0)
(-2.04137e-19 -4.92961e-13 0)
(-2.07609e-19 -4.92961e-13 0)
(-2.10971e-19 -4.92961e-13 0)
(-2.14224e-19 -4.92961e-13 0)
(-2.17368e-19 -4.92961e-13 0)
(-2.20405e-19 -4.92961e-13 0)
(-2.23336e-19 -4.92961e-13 0)
(-2.26163e-19 -4.92961e-13 0)
(-2.28887e-19 -4.92961e-13 0)
(-2.31508e-19 -4.92961e-13 0)
(-2.34029e-19 -4.92961e-13 0)
(-2.36451e-19 -4.92961e-13 0)
(-2.38775e-19 -4.92961e-13 0)
(-2.41003e-19 -4.92961e-13 0)
(-2.43136e-19 -4.92961e-13 0)
(-2.45176e-19 -4.92961e-13 0)
(-2.47124e-19 -4.92961e-13 0)
(-2.48981e-19 -4.92961e-13 0)
(-2.5075e-19 -4.92961e-13 0)
(-2.52432e-19 -4.92961e-13 0)
(-2.54028e-19 -4.92961e-13 0)
(-2.5554e-19 -4.92961e-13 0)
(-2.56969e-19 -4.92961e-13 0)
(-2.58317e-19 -4.92961e-13 0)
(-2.59586e-19 -4.92961e-13 0)
(-2.60777e-19 -4.92961e-13 0)
(-2.61892e-19 -4.92961e-13 0)
(-2.62931e-19 -4.92961e-13 0)
(-2.63898e-19 -4.92961e-13 0)
(-2.64792e-19 -4.92961e-13 0)
(-2.65617e-19 -4.92961e-13 0)
(-2.66372e-19 -4.92961e-13 0)
(-2.67061e-19 -4.92961e-13 0)
(-2.67683e-19 -4.92961e-13 0)
(-2.68242e-19 -4.92961e-13 0)
(-2.68737e-19 -4.92961e-13 0)
(-2.69172e-19 -4.92961e-13 0)
(-2.69546e-19 -4.92961e-13 0)
(-2.69862e-19 -4.92961e-13 0)
(-2.70121e-19 -4.92961e-13 0)
(-2.70324e-19 -4.92961e-13 0)
(-2.70473e-19 -4.92961e-13 0)
(-2.70569e-19 -4.92961e-13 0)
(-2.70613e-19 -4.92961e-13 0)
(-4.17315e-21 -4.92961e-13 0)
(-1.24799e-20 -4.92961e-13 0)
(-2.0705e-20 -4.92961e-13 0)
(-2.88435e-20 -4.92961e-13 0)
(-3.68907e-20 -4.92961e-13 0)
(-4.4842e-20 -4.92961e-13 0)
(-5.26935e-20 -4.92961e-13 0)
(-6.04413e-20 -4.92961e-13 0)
(-6.80817e-20 -4.92961e-13 0)
(-7.56116e-20 -4.92961e-13 0)
(-8.30279e-20 -4.92961e-13 0)
(-9.03278e-20 -4.92961e-13 0)
(-9.75087e-20 -4.92961e-13 0)
(-1.04568e-19 -4.92961e-13 0)
(-1.11505e-19 -4.92961e-13 0)
(-1.18316e-19 -4.92961e-13 0)
(-1.25e-19 -4.92961e-13 0)
(-1.31556e-19 -4.92961e-13 0)
(-1.37982e-19 -4.92961e-13 0)
(-1.44278e-19 -4.92961e-13 0)
(-1.50442e-19 -4.92961e-13 0)
(-1.56474e-19 -4.92961e-13 0)
(-1.62373e-19 -4.92961e-13 0)
(-1.68139e-19 -4.92961e-13 0)
(-1.73771e-19 -4.92961e-13 0)
(-1.79269e-19 -4.92961e-13 0)
(-1.84634e-19 -4.92961e-13 0)
(-1.89865e-19 -4.92961e-13 0)
(-1.94964e-19 -4.92961e-13 0)
(-1.99929e-19 -4.92961e-13 0)
(-2.04762e-19 -4.92961e-13 0)
(-2.09463e-19 -4.92961e-13 0)
(-2.14033e-19 -4.92961e-13 0)
(-2.18473e-19 -4.92961e-13 0)
(-2.22784e-19 -4.92961e-13 0)
(-2.26966e-19 -4.92961e-13 0)
(-2.31021e-19 -4.92961e-13 0)
(-2.34949e-19 -4.92961e-13 0)
(-2.38752e-19 -4.92961e-13 0)
(-2.42432e-19 -4.92961e-13 0)
(-2.45989e-19 -4.92961e-13 0)
(-2.49424e-19 -4.92961e-13 0)
(-2.5274e-19 -4.92961e-13 0)
(-2.55938e-19 -4.92961e-13 0)
(-2.59018e-19 -4.92961e-13 0)
(-2.61983e-19 -4.92961e-13 0)
(-2.64834e-19 -4.92961e-13 0)
(-2.67573e-19 -4.92961e-13 0)
(-2.70202e-19 -4.92961e-13 0)
(-2.72721e-19 -4.92961e-13 0)
(-2.75133e-19 -4.92961e-13 0)
(-2.7744e-19 -4.92961e-13 0)
(-2.79643e-19 -4.92961e-13 0)
(-2.81743e-19 -4.92961e-13 0)
(-2.83743e-19 -4.92961e-13 0)
(-2.85644e-19 -4.92961e-13 0)
(-2.87449e-19 -4.92961e-13 0)
(-2.89158e-19 -4.92961e-13 0)
(-2.90774e-19 -4.92961e-13 0)
(-2.92298e-19 -4.92961e-13 0)
(-2.93732e-19 -4.92961e-13 0)
(-2.95077e-19 -4.92961e-13 0)
(-2.96337e-19 -4.92961e-13 0)
(-2.97512e-19 -4.92961e-13 0)
(-2.98603e-19 -4.92961e-13 0)
(-2.99614e-19 -4.92961e-13 0)
(-3.00545e-19 -4.92961e-13 0)
(-3.01398e-19 -4.92961e-13 0)
(-3.02175e-19 -4.92961e-13 0)
(-3.02878e-19 -4.92961e-13 0)
(-3.03509e-19 -4.92961e-13 0)
(-3.04068e-19 -4.92961e-13 0)
(-3.04557e-19 -4.92961e-13 0)
(-3.04979e-19 -4.92961e-13 0)
(-3.05335e-19 -4.92961e-13 0)
(-3.05626e-19 -4.92961e-13 0)
(-3.05855e-19 -4.92961e-13 0)
(-3.06022e-19 -4.92961e-13 0)
(-3.06129e-19 -4.92961e-13 0)
(-3.06177e-19 -4.92961e-13 0)
(-4.78872e-21 -4.92961e-13 0)
(-1.43208e-20 -4.92961e-13 0)
(-2.37592e-20 -4.92961e-13 0)
(-3.30982e-20 -4.92961e-13 0)
(-4.23323e-20 -4.92961e-13 0)
(-5.14564e-20 -4.92961e-13 0)
(-6.04659e-20 -4.92961e-13 0)
(-6.93564e-20 -4.92961e-13 0)
(-7.81236e-20 -4.92961e-13 0)
(-8.67639e-20 -4.92961e-13 0)
(-9.52738e-20 -4.92961e-13 0)
(-1.0365e-19 -4.92961e-13 0)
(-1.1189e-19 -4.92961e-13 0)
(-1.1999e-19 -4.92961e-13 0)
(-1.27949e-19 -4.92961e-13 0)
(-1.35764e-19 -4.92961e-13 0)
(-1.43433e-19 -4.92961e-13 0)
(-1.50955e-19 -4.92961e-13 0)
(-1.58328e-19 -4.92961e-13 0)
(-1.65552e-19 -4.92961e-13 0)
(-1.72624e-19 -4.92961e-13 0)
(-1.79544e-19 -4.92961e-13 0)
(-1.86312e-19 -4.92961e-13 0)
(-1.92926e-19 -4.92961e-13 0)
(-1.99388e-19 -4.92961e-13 0)
(-2.05696e-19 -4.92961e-13 0)
(-2.1185e-19 -4.92961e-13 0)
(-2.17851e-19 -4.92961e-13 0)
(-2.237e-19 -4.92961e-13 0)
(-2.29395e-19 -4.92961e-13 0)
(-2.34939e-19 -4.92961e-13 0)
(-2.40332e-19 -4.92961e-13 0)
(-2.45574e-19 -4.92961e-13 0)
(-2.50667e-19 -4.92961e-13 0)
(-2.55611e-19 -4.92961e-13 0)
(-2.60407e-19 -4.92961e-13 0)
(-2.65058e-19 -4.92961e-13 0)
(-2.69563e-19 -4.92961e-13 0)
(-2.73925e-19 -4.92961e-13 0)
(-2.78144e-19 -4.92961e-13 0)
(-2.82223e-19 -4.92961e-13 0)
(-2.86163e-19 -4.92961e-13 0)
(-2.89965e-19 -4.92961e-13 0)
(-2.93631e-19 -4.92961e-13 0)
(-2.97163e-19 -4.92961e-13 0)
(-3.00563e-19 -4.92961e-13 0)
(-3.03832e-19 -4.92961e-13 0)
(-3.06972e-19 -4.92961e-13 0)
(-3.09986e-19 -4.92961e-13 0)
(-3.12874e-19 -4.92961e-13 0)
(-3.15639e-19 -4.92961e-13 0)
(-3.18283e-19 -4.92961e-13 0)
(-3.20807e-19 -4.92961e-13 0)
(-3.23215e-19 -4.92961e-13 0)
(-3.25507e-19 -4.92961e-13 0)
(-3.27686e-19 -4.92961e-13 0)
(-3.29753e-19 -4.92961e-13 0)
(-3.31712e-19 -4.92961e-13 0)
(-3.33563e-19 -4.92961e-13 0)
(-3.35309e-19 -4.92961e-13 0)
(-3.36951e-19 -4.92961e-13 0)
(-3.38493e-19 -4.92961e-13 0)
(-3.39935e-19 -4.92961e-13 0)
(-3.4128e-19 -4.92961e-13 0)
(-3.4253e-19 -4.92961e-13 0)
(-3.43687e-19 -4.92961e-13 0)
(-3.44753e-19 -4.92961e-13 0)
(-3.45729e-19 -4.92961e-13 0)
(-3.46619e-19 -4.92961e-13 0)
(-3.47423e-19 -4.92961e-13 0)
(-3.48143e-19 -4.92961e-13 0)
(-3.48782e-19 -4.92961e-13 0)
(-3.49342e-19 -4.92961e-13 0)
(-3.49823e-19 -4.92961e-13 0)
(-3.50229e-19 -4.92961e-13 0)
(-3.50561e-19 -4.92961e-13 0)
(-3.50821e-19 -4.92961e-13 0)
(-3.5101e-19 -4.92961e-13 0)
(-3.51131e-19 -4.92961e-13 0)
(-3.51184e-19 -4.92961e-13 0)
(-5.55308e-21 -4.92961e-13 0)
(-1.66066e-20 -4.92961e-13 0)
(-2.75516e-20 -4.92961e-13 0)
(-3.83811e-20 -4.92961e-13 0)
(-4.9089e-20 -4.92961e-13 0)
(-5.96694e-20 -4.92961e-13 0)
(-7.01167e-20 -4.92961e-13 0)
(-8.04259e-20 -4.92961e-13 0)
(-9.05922e-20 -4.92961e-13 0)
(-1.00611e-19 -4.92961e-13 0)
(-1.10479e-19 -4.92961e-13 0)
(-1.20191e-19 -4.92961e-13 0)
(-1.29745e-19 -4.92961e-13 0)
(-1.39138e-19 -4.92961e-13 0)
(-1.48366e-19 -4.92961e-13 0)
(-1.57428e-19 -4.92961e-13 0)
(-1.6632e-19 -4.92961e-13 0)
(-1.75041e-19 -4.92961e-13 0)
(-1.8359e-19 -4.92961e-13 0)
(-1.91964e-19 -4.92961e-13 0)
(-2.00164e-19 -4.92961e-13 0)
(-2.08187e-19 -4.92961e-13 0)
(-2.16033e-19 -4.92961e-13 0)
(-2.23701e-19 -4.92961e-13 0)
(-2.31192e-19 -4.92961e-13 0)
(-2.38504e-19 -4.92961e-13 0)
(-2.45639e-19 -4.92961e-13 0)
(-2.52595e-19 -4.92961e-13 0)
(-2.59374e-19 -4.92961e-13 0)
(-2.65976e-19 -4.92961e-13 0)
(-2.72402e-19 -4.92961e-13 0)
(-2.78653e-19 -4.92961e-13 0)
(-2.84728e-19 -4.92961e-13 0)
(-2.90631e-19 -4.92961e-13 0)
(-2.96361e-19 -4.92961e-13 0)
(-3.0192e-19 -4.92961e-13 0)
(-3.07309e-19 -4.92961e-13 0)
(-3.1253e-19 -4.92961e-13 0)
(-3.17584e-19 -4.92961e-13 0)
(-3.22474e-19 -4.92961e-13 0)
(-3.272e-19 -4.92961e-13 0)
(-3.31765e-19 -4.92961e-13 0)
(-3.3617e-19 -4.92961e-13 0)
(-3.40418e-19 -4.92961e-13 0)
(-3.4451e-19 -4.92961e-13 0)
(-3.48448e-19 -4.92961e-13 0)
(-3.52235e-19 -4.92961e-13 0)
(-3.55873e-19 -4.92961e-13 0)
(-3.59363e-19 -4.92961e-13 0)
(-3.62708e-19 -4.92961e-13 0)
(-3.6591e-19 -4.92961e-13 0)
(-3.68972e-19 -4.92961e-13 0)
(-3.71896e-19 -4.92961e-13 0)
(-3.74683e-19 -4.92961e-13 0)
(-3.77337e-19 -4.92961e-13 0)
(-3.7986e-19 -4.92961e-13 0)
(-3.82254e-19 -4.92961e-13 0)
(-3.8452e-19 -4.92961e-13 0)
(-3.86663e-19 -4.92961e-13 0)
(-3.88684e-19 -4.92961e-13 0)
(-3.90584e-19 -4.92961e-13 0)
(-3.92368e-19 -4.92961e-13 0)
(-3.94037e-19 -4.92961e-13 0)
(-3.95593e-19 -4.92961e-13 0)
(-3.97039e-19 -4.92961e-13 0)
(-3.98376e-19 -4.92961e-13 0)
(-3.99609e-19 -4.92961e-13 0)
(-4.00737e-19 -4.92961e-13 0)
(-4.01765e-19 -4.92961e-13 0)
(-4.02693e-19 -4.92961e-13 0)
(-4.03525e-19 -4.92961e-13 0)
(-4.04263e-19 -4.92961e-13 0)
(-4.04908e-19 -4.92961e-13 0)
(-4.05464e-19 -4.92961e-13 0)
(-4.05931e-19 -4.92961e-13 0)
(-4.06312e-19 -4.92961e-13 0)
(-4.0661e-19 -4.92961e-13 0)
(-4.06827e-19 -4.92961e-13 0)
(-4.06963e-19 -4.92961e-13 0)
(-4.07023e-19 -4.92961e-13 0)
(-6.49025e-21 -4.92961e-13 0)
(-1.94092e-20 -4.92961e-13 0)
(-3.22012e-20 -4.92961e-13 0)
(-4.48583e-20 -4.92961e-13 0)
(-5.73732e-20 -4.92961e-13 0)
(-6.9739e-20 -4.92961e-13 0)
(-8.19492e-20 -4.92961e-13 0)
(-9.39978e-20 -4.92961e-13 0)
(-1.05879e-19 -4.92961e-13 0)
(-1.17588e-19 -4.92961e-13 0)
(-1.29121e-19 -4.92961e-13 0)
(-1.40471e-19 -4.92961e-13 0)
(-1.51637e-19 -4.92961e-13 0)
(-1.62613e-19 -4.92961e-13 0)
(-1.73398e-19 -4.92961e-13 0)
(-1.83987e-19 -4.92961e-13 0)
(-1.94378e-19 -4.92961e-13 0)
(-2.04569e-19 -4.92961e-13 0)
(-2.14559e-19 -4.92961e-13 0)
(-2.24344e-19 -4.92961e-13 0)
(-2.33925e-19 -4.92961e-13 0)
(-2.433e-19 -4.92961e-13 0)
(-2.52467e-19 -4.92961e-13 0)
(-2.61427e-19 -4.92961e-13 0)
(-2.70178e-19 -4.92961e-13 0)
(-2.78722e-19 -4.92961e-13 0)
(-2.87057e-19 -4.92961e-13 0)
(-2.95184e-19 -4.92961e-13 0)
(-3.03104e-19 -4.92961e-13 0)
(-3.10816e-19 -4.92961e-13 0)
(-3.18323e-19 -4.92961e-13 0)
(-3.25624e-19 -4.92961e-13 0)
(-3.32721e-19 -4.92961e-13 0)
(-3.39615e-19 -4.92961e-13 0)
(-3.46307e-19 -4.92961e-13 0)
(-3.528e-19 -4.92961e-13 0)
(-3.59094e-19 -4.92961e-13 0)
(-3.65191e-19 -4.92961e-13 0)
(-3.71094e-19 -4.92961e-13 0)
(-3.76804e-19 -4.92961e-13 0)
(-3.82322e-19 -4.92961e-13 0)
(-3.87652e-19 -4.92961e-13 0)
(-3.92796e-19 -4.92961e-13 0)
(-3.97755e-19 -4.92961e-13 0)
(-4.02532e-19 -4.92961e-13 0)
(-4.0713e-19 -4.92961e-13 0)
(-4.11551e-19 -4.92961e-13 0)
(-4.15796e-19 -4.92961e-13 0)
(-4.1987e-19 -4.92961e-13 0)
(-4.23774e-19 -4.92961e-13 0)
(-4.27512e-19 -4.92961e-13 0)
(-4.31085e-19 -4.92961e-13 0)
(-4.34496e-19 -4.92961e-13 0)
(-4.37749e-19 -4.92961e-13 0)
(-4.40845e-19 -4.92961e-13 0)
(-4.43788e-19 -4.92961e-13 0)
(-4.46579e-19 -4.92961e-13 0)
(-4.49223e-19 -4.92961e-13 0)
(-4.51722e-19 -4.92961e-13 0)
(-4.54078e-19 -4.92961e-13 0)
(-4.56294e-19 -4.92961e-13 0)
(-4.58374e-19 -4.92961e-13 0)
(-4.60319e-19 -4.92961e-13 0)
(-4.62132e-19 -4.92961e-13 0)
(-4.63816e-19 -4.92961e-13 0)
(-4.65375e-19 -4.92961e-13 0)
(-4.6681e-19 -4.92961e-13 0)
(-4.68124e-19 -4.92961e-13 0)
(-4.6932e-19 -4.92961e-13 0)
(-4.704e-19 -4.92961e-13 0)
(-4.71368e-19 -4.92961e-13 0)
(-4.72225e-19 -4.92961e-13 0)
(-4.72974e-19 -4.92961e-13 0)
(-4.73618e-19 -4.92961e-13 0)
(-4.7416e-19 -4.92961e-13 0)
(-4.74602e-19 -4.92961e-13 0)
(-4.74945e-19 -4.92961e-13 0)
(-4.75194e-19 -4.92961e-13 0)
(-4.75349e-19 -4.92961e-13 0)
(-4.75414e-19 -4.92961e-13 0)
(-7.62975e-21 -4.92961e-13 0)
(-2.28169e-20 -4.92961e-13 0)
(-3.78548e-20 -4.92961e-13 0)
(-5.2734e-20 -4.92961e-13 0)
(-6.7446e-20 -4.92961e-13 0)
(-8.19825e-20 -4.92961e-13 0)
(-9.63361e-20 -4.92961e-13 0)
(-1.105e-19 -4.92961e-13 0)
(-1.24466e-19 -4.92961e-13 0)
(-1.38231e-19 -4.92961e-13 0)
(-1.51786e-19 -4.92961e-13 0)
(-1.65129e-19 -4.92961e-13 0)
(-1.78253e-19 -4.92961e-13 0)
(-1.91155e-19 -4.92961e-13 0)
(-2.03831e-19 -4.92961e-13 0)
(-2.16277e-19 -4.92961e-13 0)
(-2.28491e-19 -4.92961e-13 0)
(-2.40469e-19 -4.92961e-13 0)
(-2.52209e-19 -4.92961e-13 0)
(-2.6371e-19 -4.92961e-13 0)
(-2.74969e-19 -4.92961e-13 0)
(-2.85986e-19 -4.92961e-13 0)
(-2.9676e-19 -4.92961e-13 0)
(-3.07289e-19 -4.92961e-13 0)
(-3.17573e-19 -4.92961e-13 0)
(-3.27611e-19 -4.92961e-13 0)
(-3.37405e-19 -4.92961e-13 0)
(-3.46955e-19 -4.92961e-13 0)
(-3.5626e-19 -4.92961e-13 0)
(-3.65321e-19 -4.92961e-13 0)
(-3.7414e-19 -4.92961e-13 0)
(-3.82717e-19 -4.92961e-13 0)
(-3.91054e-19 -4.92961e-13 0)
(-3.99153e-19 -4.92961e-13 0)
(-4.07014e-19 -4.92961e-13 0)
(-4.1464e-19 -4.92961e-13 0)
(-4.22033e-19 -4.92961e-13 0)
(-4.29194e-19 -4.92961e-13 0)
(-4.36126e-19 -4.92961e-13 0)
(-4.42832e-19 -4.92961e-13 0)
(-4.49312e-19 -4.92961e-13 0)
(-4.55571e-19 -4.92961e-13 0)
(-4.6161e-19 -4.92961e-13 0)
(-4.67433e-19 -4.92961e-13 0)
(-4.73042e-19 -4.92961e-13 0)
(-4.78439e-19 -4.92961e-13 0)
(-4.83628e-19 -4.92961e-13 0)
(-4.88612e-19 -4.92961e-13 0)
(-4.93393e-19 -4.92961e-13 0)
(-4.97975e-19 -4.92961e-13 0)
(-5.02361e-19 -4.92961e-13 0)
(-5.06554e-19 -4.92961e-13 0)
(-5.10556e-19 -4.92961e-13 0)
(-5.14372e-19 -4.92961e-13 0)
(-5.18004e-19 -4.92961e-13 0)
(-5.21456e-19 -4.92961e-13 0)
(-5.2473e-19 -4.92961e-13 0)
(-5.27831e-19 -4.92961e-13 0)
(-5.3076e-19 -4.92961e-13 0)
(-5.33523e-19 -4.92961e-13 0)
(-5.3612e-19 -4.92961e-13 0)
(-5.38557e-19 -4.92961e-13 0)
(-5.40836e-19 -4.92961e-13 0)
(-5.42961e-19 -4.92961e-13 0)
(-5.44933e-19 -4.92961e-13 0)
(-5.46758e-19 -4.92961e-13 0)
(-5.48438e-19 -4.92961e-13 0)
(-5.49975e-19 -4.92961e-13 0)
(-5.51374e-19 -4.92961e-13 0)
(-5.52637e-19 -4.92961e-13 0)
(-5.53768e-19 -4.92961e-13 0)
(-5.54769e-19 -4.92961e-13 0)
(-5.55644e-19 -4.92961e-13 0)
(-5.56395e-19 -4.92961e-13 0)
(-5.57025e-19 -4.92961e-13 0)
(-5.57538e-19 -4.92961e-13 0)
(-5.57936e-19 -4.92961e-13 0)
(-5.58222e-19 -4.92961e-13 0)
(-5.58399e-19 -4.92961e-13 0)
(-5.58469e-19 -4.92961e-13 0)
(-9.00765e-21 -4.92961e-13 0)
(-2.69376e-20 -4.92961e-13 0)
(-4.46911e-20 -4.92961e-13 0)
(-6.22573e-20 -4.92961e-13 0)
(-7.96259e-20 -4.92961e-13 0)
(-9.67873e-20 -4.92961e-13 0)
(-1.13732e-19 -4.92961e-13 0)
(-1.30453e-19 -4.92961e-13 0)
(-1.46941e-19 -4.92961e-13 0)
(-1.6319e-19 -4.92961e-13 0)
(-1.79192e-19 -4.92961e-13 0)
(-1.94943e-19 -4.92961e-13 0)
(-2.10435e-19 -4.92961e-13 0)
(-2.25665e-19 -4.92961e-13 0)
(-2.40627e-19 -4.92961e-13 0)
(-2.55318e-19 -4.92961e-13 0)
(-2.69734e-19 -4.92961e-13 0)
(-2.83872e-19 -4.92961e-13 0)
(-2.97729e-19 -4.92961e-13 0)
(-3.11303e-19 -4.92961e-13 0)
(-3.24591e-19 -4.92961e-13 0)
(-3.37593e-19 -4.92961e-13 0)
(-3.50306e-19 -4.92961e-13 0)
(-3.62731e-19 -4.92961e-13 0)
(-3.74867e-19 -4.92961e-13 0)
(-3.86713e-19 -4.92961e-13 0)
(-3.98269e-19 -4.92961e-13 0)
(-4.09536e-19 -4.92961e-13 0)
(-4.20514e-19 -4.92961e-13 0)
(-4.31205e-19 -4.92961e-13 0)
(-4.41609e-19 -4.92961e-13 0)
(-4.51727e-19 -4.92961e-13 0)
(-4.61562e-19 -4.92961e-13 0)
(-4.71114e-19 -4.92961e-13 0)
(-4.80387e-19 -4.92961e-13 0)
(-4.89381e-19 -4.92961e-13 0)
(-4.981e-19 -4.92961e-13 0)
(-5.06545e-19 -4.92961e-13 0)
(-5.1472e-19 -4.92961e-13 0)
(-5.22627e-19 -4.92961e-13 0)
(-5.30268e-19 -4.92961e-13 0)
(-5.37647e-19 -4.92961e-13 0)
(-5.44767e-19 -4.92961e-13 0)
(-5.51631e-19 -4.92961e-13 0)
(-5.58242e-19 -4.92961e-13 0)
(-5.64604e-19 -4.92961e-13 0)
(-5.7072e-19 -4.92961e-13 0)
(-5.76593e-19 -4.92961e-13 0)
(-5.82227e-19 -4.92961e-13 0)
(-5.87626e-19 -4.92961e-13 0)
(-5.92793e-19 -4.92961e-13 0)
(-5.97732e-19 -4.92961e-13 0)
(-6.02447e-19 -4.92961e-13 0)
(-6.06941e-19 -4.92961e-13 0)
(-6.11218e-19 -4.92961e-13 0)
(-6.15282e-19 -4.92961e-13 0)
(-6.19138e-19 -4.92961e-13 0)
(-6.22787e-19 -4.92961e-13 0)
(-6.26235e-19 -4.92961e-13 0)
(-6.29486e-19 -4.92961e-13 0)
(-6.32542e-19 -4.92961e-13 0)
(-6.35409e-19 -4.92961e-13 0)
(-6.38089e-19 -4.92961e-13 0)
(-6.40587e-19 -4.92961e-13 0)
(-6.42906e-19 -4.92961e-13 0)
(-6.4505e-19 -4.92961e-13 0)
(-6.47023e-19 -4.92961e-13 0)
(-6.48828e-19 -4.92961e-13 0)
(-6.5047e-19 -4.92961e-13 0)
(-6.51952e-19 -4.92961e-13 0)
(-6.53277e-19 -4.92961e-13 0)
(-6.5445e-19 -4.92961e-13 0)
(-6.55473e-19 -4.92961e-13 0)
(-6.5635e-19 -4.92961e-13 0)
(-6.57086e-19 -4.92961e-13 0)
(-6.57682e-19 -4.92961e-13 0)
(-6.58144e-19 -4.92961e-13 0)
(-6.58473e-19 -4.92961e-13 0)
(-6.58674e-19 -4.92961e-13 0)
(-6.58749e-19 -4.92961e-13 0)
(-1.06677e-20 -4.92961e-13 0)
(-3.1902e-20 -4.92961e-13 0)
(-5.29274e-20 -4.92961e-13 0)
(-7.37308e-20 -4.92961e-13 0)
(-9.43e-20 -4.92961e-13 0)
(-1.14624e-19 -4.92961e-13 0)
(-1.34691e-19 -4.92961e-13 0)
(-1.54492e-19 -4.92961e-13 0)
(-1.74017e-19 -4.92961e-13 0)
(-1.93259e-19 -4.92961e-13 0)
(-2.12209e-19 -4.92961e-13 0)
(-2.30859e-19 -4.92961e-13 0)
(-2.49204e-19 -4.92961e-13 0)
(-2.67238e-19 -4.92961e-13 0)
(-2.84954e-19 -4.92961e-13 0)
(-3.02348e-19 -4.92961e-13 0)
(-3.19417e-19 -4.92961e-13 0)
(-3.36155e-19 -4.92961e-13 0)
(-3.5256e-19 -4.92961e-13 0)
(-3.6863e-19 -4.92961e-13 0)
(-3.84361e-19 -4.92961e-13 0)
(-3.99752e-19 -4.92961e-13 0)
(-4.14801e-19 -4.92961e-13 0)
(-4.29508e-19 -4.92961e-13 0)
(-4.43872e-19 -4.92961e-13 0)
(-4.57893e-19 -4.92961e-13 0)
(-4.7157e-19 -4.92961e-13 0)
(-4.84904e-19 -4.92961e-13 0)
(-4.97895e-19 -4.92961e-13 0)
(-5.10546e-19 -4.92961e-13 0)
(-5.22857e-19 -4.92961e-13 0)
(-5.34829e-19 -4.92961e-13 0)
(-5.46465e-19 -4.92961e-13 0)
(-5.57766e-19 -4.92961e-13 0)
(-5.68736e-19 -4.92961e-13 0)
(-5.79375e-19 -4.92961e-13 0)
(-5.89688e-19 -4.92961e-13 0)
(-5.99677e-19 -4.92961e-13 0)
(-6.09345e-19 -4.92961e-13 0)
(-6.18695e-19 -4.92961e-13 0)
(-6.27731e-19 -4.92961e-13 0)
(-6.36457e-19 -4.92961e-13 0)
(-6.44875e-19 -4.92961e-13 0)
(-6.52989e-19 -4.92961e-13 0)
(-6.60804e-19 -4.92961e-13 0)
(-6.68324e-19 -4.92961e-13 0)
(-6.75552e-19 -4.92961e-13 0)
(-6.82493e-19 -4.92961e-13 0)
(-6.89151e-19 -4.92961e-13 0)
(-6.9553e-19 -4.92961e-13 0)
(-7.01634e-19 -4.92961e-13 0)
(-7.07469e-19 -4.92961e-13 0)
(-7.13037e-19 -4.92961e-13 0)
(-7.18344e-19 -4.92961e-13 0)
(-7.23395e-19 -4.92961e-13 0)
(-7.28193e-19 -4.92961e-13 0)
(-7.32744e-19 -4.92961e-13 0)
(-7.37051e-19 -4.92961e-13 0)
(-7.4112e-19 -4.92961e-13 0)
(-7.44955e-19 -4.92961e-13 0)
(-7.4856e-19 -4.92961e-13 0)
(-7.5194e-19 -4.92961e-13 0)
(-7.551e-19 -4.92961e-13 0)
(-7.58043e-19 -4.92961e-13 0)
(-7.60775e-19 -4.92961e-13 0)
(-7.63301e-19 -4.92961e-13 0)
(-7.65623e-19 -4.92961e-13 0)
(-7.67748e-19 -4.92961e-13 0)
(-7.69679e-19 -4.92961e-13 0)
(-7.7142e-19 -4.92961e-13 0)
(-7.72976e-19 -4.92961e-13 0)
(-7.74352e-19 -4.92961e-13 0)
(-7.75551e-19 -4.92961e-13 0)
(-7.76578e-19 -4.92961e-13 0)
(-7.77436e-19 -4.92961e-13 0)
(-7.7813e-19 -4.92961e-13 0)
(-7.78665e-19 -4.92961e-13 0)
(-7.79043e-19 -4.92961e-13 0)
(-7.79269e-19 -4.92961e-13 0)
(-7.79347e-19 -4.92961e-13 0)
(-1.2663e-20 -4.92961e-13 0)
(-3.78689e-20 -4.92961e-13 0)
(-6.28267e-20 -4.92961e-13 0)
(-8.75208e-20 -4.92961e-13 0)
(-1.11937e-19 -4.92961e-13 0)
(-1.36061e-19 -4.92961e-13 0)
(-1.5988e-19 -4.92961e-13 0)
(-1.83384e-19 -4.92961e-13 0)
(-2.06559e-19 -4.92961e-13 0)
(-2.29397e-19 -4.92961e-13 0)
(-2.51889e-19 -4.92961e-13 0)
(-2.74024e-19 -4.92961e-13 0)
(-2.95797e-19 -4.92961e-13 0)
(-3.17198e-19 -4.92961e-13 0)
(-3.38223e-19 -4.92961e-13 0)
(-3.58865e-19 -4.92961e-13 0)
(-3.7912e-19 -4.92961e-13 0)
(-3.98982e-19 -4.92961e-13 0)
(-4.18448e-19 -4.92961e-13 0)
(-4.37515e-19 -4.92961e-13 0)
(-4.56179e-19 -4.92961e-13 0)