/*--------------------------------*- C++ -*----------------------------------*\
  =========                 |
  \\      /  F ield         | OpenFOAM: The Open Source CFD Toolbox
   \\    /   O peration     | Website:  https://openfoam.org
    \\  /    A nd           | Version:  8
     \\/     M anipulation  |
\*---------------------------------------------------------------------------*/
FoamFile
{
    version     2.0;
    format      ascii;
    class       volScalarField;
    location    "3000";
    object      p;
}
// * * * * * * * * * * * * * * * * * * * * * * * * * * * * * * * * * * * * * //

dimensions      [1 -1 -2 0 0 0 0];

internalField   nonuniform List<scalar> 
12800
(
307.392
307.392
307.392
307.392
307.392
307.393
307.393
307.393
307.393
307.393
307.393
307.393
307.393
307.393
307.393
307.394
307.394
307.394
307.394
307.394
307.394
307.395
307.395
307.395
307.395
307.395
307.395
307.396
307.396
307.396
307.396
307.396
307.397
307.397
307.397
307.397
307.398
307.398
307.398
307.398
307.399
307.399
307.399
307.399
307.399
307.4
307.4
307.4
307.4
307.401
307.401
307.401
307.401
307.402
307.402
307.402
307.402
307.402
307.403
307.403
307.403
307.403
307.404
307.404
307.404
307.404
307.405
307.405
307.405
307.405
307.405
307.406
307.406
307.406
307.406
307.406
307.407
307.407
307.407
307.407
306.166
306.166
306.166
306.166
306.166
306.166
306.166
306.166
306.166
306.166
306.166
306.166
306.166
306.167
306.167
306.167
306.167
306.167
306.167
306.168
306.168
306.168
306.168
306.168
306.168
306.169
306.169
306.169
306.169
306.169
306.17
306.17
306.17
306.17
306.171
306.171
306.171
306.171
306.172
306.172
306.172
306.172
306.172
306.173
306.173
306.173
306.173
306.174
306.174
306.174
306.174
306.175
306.175
306.175
306.175
306.176
306.176
306.176
306.176
306.177
306.177
306.177
306.177
306.178
306.178
306.178
306.178
306.178
306.179
306.179
306.179
306.179
306.18
306.18
306.18
306.18
306.18
306.181
306.181
306.181
304.938
304.938
304.938
304.939
304.939
304.939
304.939
304.939
304.939
304.939
304.939
304.939
304.939
304.939
304.94
304.94
304.94
304.94
304.94
304.94
304.941
304.941
304.941
304.941
304.941
304.942
304.942
304.942
304.942
304.943
304.943
304.943
304.943
304.943
304.944
304.944
304.944
304.944
304.945
304.945
304.945
304.945
304.946
304.946
304.946
304.946
304.947
304.947
304.947
304.948
304.948
304.948
304.948
304.949
304.949
304.949
304.949
304.95
304.95
304.95
304.95
304.951
304.951
304.951
304.951
304.952
304.952
304.952
304.952
304.953
304.953
304.953
304.953
304.953
304.954
304.954
304.954
304.954
304.955
304.955
303.711
303.711
303.711
303.711
303.711
303.711
303.711
303.711
303.711
303.711
303.711
303.712
303.712
303.712
303.712
303.712
303.712
303.712
303.713
303.713
303.713
303.713
303.714
303.714
303.714
303.714
303.714
303.715
303.715
303.715
303.715
303.716
303.716
303.716
303.716
303.717
303.717
303.717
303.718
303.718
303.718
303.718
303.719
303.719
303.719
303.72
303.72
303.72
303.72
303.721
303.721
303.721
303.722
303.722
303.722
303.722
303.723
303.723
303.723
303.723
303.724
303.724
303.724
303.725
303.725
303.725
303.725
303.726
303.726
303.726
303.726
303.727
303.727
303.727
303.727
303.728
303.728
303.728
303.728
303.729
302.482
302.482
302.482
302.482
302.483
302.483
302.483
302.483
302.483
302.483
302.483
302.483
302.483
302.484
302.484
302.484
302.484
302.484
302.485
302.485
302.485
302.485
302.486
302.486
302.486
302.486
302.487
302.487
302.487
302.487
302.488
302.488
302.488
302.489
302.489
302.489
302.49
302.49
302.49
302.49
302.491
302.491
302.491
302.492
302.492
302.492
302.493
302.493
302.493
302.494
302.494
302.494
302.495
302.495
302.495
302.495
302.496
302.496
302.496
302.497
302.497
302.497
302.498
302.498
302.498
302.499
302.499
302.499
302.499
302.5
302.5
302.5
302.501
302.501
302.501
302.501
302.502
302.502
302.502
302.503
301.253
301.253
301.253
301.254
301.254
301.254
301.254
301.254
301.254
301.254
301.254
301.254
301.255
301.255
301.255
301.255
301.256
301.256
301.256
301.256
301.257
301.257
301.257
301.257
301.258
301.258
301.258
301.259
301.259
301.259
301.26
301.26
301.26
301.261
301.261
301.261
301.262
301.262
301.262
301.263
301.263
301.263
301.264
301.264
301.264
301.265
301.265
301.266
301.266
301.266
301.267
301.267
301.267
301.268
301.268
301.268
301.269
301.269
301.27
301.27
301.27
301.271
301.271
301.271
301.272
301.272
301.272
301.273
301.273
301.273
301.274
301.274
301.274
301.275
301.275
301.275
301.275
301.276
301.276
301.276
300.024
300.024
300.024
300.024
300.024
300.024
300.024
300.024
300.024
300.025
300.025
300.025
300.025
300.025
300.026
300.026
300.026
300.026
300.027
300.027
300.027
300.028
300.028
300.028
300.029
300.029
300.029
300.03
300.03
300.03
300.031
300.031
300.032
300.032
300.032
300.033
300.033
300.034
300.034
300.034
300.035
300.035
300.036
300.036
300.037
300.037
300.037
300.038
300.038
300.039
300.039
300.04
300.04
300.04
300.041
300.041
300.042
300.042
300.042
300.043
300.043
300.044
300.044
300.044
300.045
300.045
300.046
300.046
300.046
300.047
300.047
300.047
300.048
300.048
300.049
300.049
300.049
300.05
300.05
300.05
298.793
298.793
298.793
298.793
298.793
298.793
298.794
298.794
298.794
298.794
298.794
298.795
298.795
298.795
298.795
298.796
298.796
298.796
298.797
298.797
298.797
298.798
298.798
298.799
298.799
298.799
298.8
298.8
298.801
298.801
298.802
298.802
298.803
298.803
298.803
298.804
298.804
298.805
298.805
298.806
298.806
298.807
298.807
298.808
298.808
298.809
298.809
298.81
298.81
298.811
298.811
298.812
298.812
298.813
298.813
298.814
298.814
298.815
298.815
298.816
298.816
298.817
298.817
298.818
298.818
298.818
298.819
298.819
298.82
298.82
298.821
298.821
298.822
298.822
298.822
298.823
298.823
298.824
298.824
298.824
297.561
297.562
297.562
297.562
297.562
297.562
297.562
297.562
297.562
297.563
297.563
297.563
297.564
297.564
297.564
297.565
297.565
297.565
297.566
297.566
297.567
297.567
297.568
297.568
297.569
297.569
297.57
297.57
297.571
297.571
297.572
297.572
297.573
297.573
297.574
297.574
297.575
297.576
297.576
297.577
297.577
297.578
297.578
297.579
297.58
297.58
297.581
297.581
297.582
297.583
297.583
297.584
297.584
297.585
297.585
297.586
297.587
297.587
297.588
297.588
297.589
297.589
297.59
297.591
297.591
297.592
297.592
297.593
297.593
297.594
297.594
297.595
297.595
297.596
297.596
297.597
297.597
297.598
297.598
297.599
296.329
296.329
296.329
296.329
296.329
296.329
296.329
296.33
296.33
296.33
296.33
296.331
296.331
296.332
296.332
296.332
296.333
296.333
296.334
296.334
296.335
296.335
296.336
296.337
296.337
296.338
296.338
296.339
296.34
296.34
296.341
296.342
296.342
296.343
296.344
296.344
296.345
296.346
296.346
296.347
296.348
296.348
296.349
296.35
296.351
296.351
296.352
296.353
296.353
296.354
296.355
296.355
296.356
296.357
296.357
296.358
296.359
296.359
296.36
296.361
296.361
296.362
296.363
296.363
296.364
296.365
296.365
296.366
296.367
296.367
296.368
296.368
296.369
296.37
296.37
296.371
296.371
296.372
296.372
296.373
295.094
295.094
295.094
295.094
295.095
295.095
295.095
295.095
295.096
295.096
295.096
295.097
295.097
295.098
295.098
295.099
295.099
295.1
295.101
295.101
295.102
295.103
295.103
295.104
295.105
295.105
295.106
295.107
295.108
295.108
295.109
295.11
295.111
295.112
295.112
295.113
295.114
295.115
295.116
295.117
295.117
295.118
295.119
295.12
295.121
295.122
295.123
295.123
295.124
295.125
295.126
295.127
295.128
295.128
295.129
295.13
295.131
295.132
295.132
295.133
295.134
295.135
295.136
295.136
295.137
295.138
295.139
295.139
295.14
295.141
295.141
295.142
295.143
295.144
295.144
295.145
295.146
295.146
295.147
295.148
293.858
293.858
293.858
293.858
293.858
293.859
293.859
293.859
293.86
293.86
293.861
293.861
293.862
293.862
293.863
293.864
293.864
293.865
293.866
293.867
293.867
293.868
293.869
293.87
293.871
293.872
293.873
293.873
293.874
293.875
293.876
293.877
293.878
293.879
293.88
293.881
293.882
293.883
293.884
293.885
293.886
293.887
293.888
293.89
293.891
293.892
293.893
293.894
293.895
293.896
293.897
293.898
293.899
293.9
293.901
293.902
293.903
293.904
293.905
293.905
293.906
293.907
293.908
293.909
293.91
293.911
293.912
293.913
293.914
293.915
293.915
293.916
293.917
293.918
293.919
293.919
293.92
293.921
293.922
293.923
292.619
292.619
292.62
292.62
292.62
292.62
292.621
292.621
292.622
292.622
292.623
292.623
292.624
292.625
292.626
292.626
292.627
292.628
292.629
292.63
292.631
292.632
292.633
292.634
292.635
292.636
292.638
292.639
292.64
292.641
292.642
292.643
292.645
292.646
292.647
292.648
292.65
292.651
292.652
292.653
292.655
292.656
292.657
292.658
292.66
292.661
292.662
292.663
292.665
292.666
292.667
292.668
292.669
292.671
292.672
292.673
292.674
292.675
292.677
292.678
292.679
292.68
292.681
292.682
292.683
292.684
292.685
292.686
292.688
292.689
292.69
292.691
292.692
292.693
292.694
292.694
292.695
292.696
292.697
292.698
291.378
291.378
291.378
291.378
291.379
291.379
291.38
291.38
291.381
291.382
291.382
291.383
291.384
291.385
291.386
291.387
291.388
291.389
291.39
291.391
291.393
291.394
291.395
291.396
291.398
291.399
291.401
291.402
291.403
291.405
291.406
291.408
291.409
291.411
291.412
291.414
291.416
291.417
291.419
291.42
291.422
291.423
291.425
291.426
291.428
291.429
291.431
291.432
291.434
291.435
291.437
291.438
291.44
291.441
291.443
291.444
291.446
291.447
291.449
291.45
291.451
291.453
291.454
291.455
291.457
291.458
291.459
291.461
291.462
291.463
291.464
291.465
291.467
291.468
291.469
291.47
291.471
291.472
291.473
291.475
290.133
290.133
290.133
290.134
290.134
290.135
290.135
290.136
290.137
290.137
290.138
290.139
290.141
290.142
290.143
290.144
290.146
290.147
290.148
290.15
290.151
290.153
290.155
290.156
290.158
290.16
290.161
290.163
290.165
290.167
290.169
290.171
290.172
290.174
290.176
290.178
290.18
290.182
290.184
290.186
290.188
290.19
290.192
290.193
290.195
290.197
290.199
290.201
290.203
290.205
290.207
290.208
290.21
290.212
290.214
290.216
290.217
290.219
290.221
290.222
290.224
290.226
290.227
290.229
290.231
290.232
290.234
290.235
290.237
290.238
290.24
290.241
290.243
290.244
290.245
290.247
290.248
290.249
290.251
290.252
288.883
288.884
288.884
288.884
288.885
288.885
288.886
288.887
288.888
288.889
288.89
288.892
288.893
288.895
288.896
288.898
288.899
288.901
288.903
288.905
288.907
288.909
288.911
288.913
288.915
288.917
288.92
288.922
288.924
288.926
288.929
288.931
288.933
288.936
288.938
288.941
288.943
288.945
288.948
288.95
288.953
288.955
288.957
288.96
288.962
288.964
288.967
288.969
288.971
288.974
288.976
288.978
288.98
288.983
288.985
288.987
288.989
288.991
288.993
288.995
288.997
288.999
289.001
289.003
289.005
289.007
289.009
289.011
289.013
289.015
289.016
289.018
289.02
289.021
289.023
289.025
289.026
289.028
289.029
289.031
287.628
287.628
287.629
287.629
287.63
287.631
287.632
287.633
287.634
287.635
287.637
287.639
287.64
287.642
287.644
287.646
287.649
287.651
287.653
287.656
287.658
287.661
287.663
287.666
287.669
287.672
287.674
287.677
287.68
287.683
287.686
287.689
287.692
287.695
287.698
287.701
287.704
287.707
287.71
287.713
287.716
287.719
287.722
287.725
287.728
287.731
287.734
287.737
287.74
287.742
287.745
287.748
287.751
287.754
287.756
287.759
287.762
287.764
287.767
287.769
287.772
287.774
287.777
287.779
287.781
287.784
287.786
287.788
287.79
287.793
287.795
287.797
287.799
287.801
287.803
287.805
287.807
287.809
287.81
287.812
286.365
286.366
286.366
286.367
286.368
286.369
286.37
286.371
286.373
286.375
286.377
286.379
286.381
286.384
286.386
286.389
286.392
286.395
286.398
286.401
286.404
286.408
286.411
286.414
286.418
286.421
286.425
286.429
286.433
286.436
286.44
286.444
286.448
286.451
286.455
286.459
286.463
286.467
286.471
286.474
286.478
286.482
286.486
286.49
286.493
286.497
286.501
286.504
286.508
286.511
286.515
286.518
286.522
286.525
286.529
286.532
286.535
286.538
286.542
286.545
286.548
286.551
286.554
286.557
286.56
286.562
286.565
286.568
286.571
286.573
286.576
286.578
286.581
286.583
286.586
286.588
286.59
286.592
286.595
286.597
285.093
285.093
285.094
285.095
285.096
285.097
285.099
285.101
285.103
285.105
285.108
285.111
285.114
285.117
285.12
285.124
285.128
285.131
285.135
285.14
285.144
285.148
285.152
285.157
285.161
285.166
285.171
285.176
285.18
285.185
285.19
285.195
285.2
285.205
285.21
285.215
285.22
285.224
285.229
285.234
285.239
285.244
285.249
285.253
285.258
285.263
285.267
285.272
285.277
285.281
285.286
285.29
285.294
285.298
285.303
285.307
285.311
285.315
285.319
285.323
285.326
285.33
285.334
285.337
285.341
285.344
285.348
285.351
285.354
285.357
285.361
285.364
285.367
285.37
285.372
285.375
285.378
285.381
285.383
285.386
283.808
283.808
283.809
283.81
283.812
283.814
283.816
283.818
283.821
283.824
283.828
283.832
283.835
283.84
283.844
283.849
283.854
283.859
283.864
283.869
283.875
283.88
283.886
283.892
283.898
283.904
283.91
283.916
283.923
283.929
283.935
283.942
283.948
283.954
283.961
283.967
283.974
283.98
283.986
283.992
283.999
284.005
284.011
284.017
284.023
284.029
284.035
284.041
284.047
284.052
284.058
284.063
284.069
284.074
284.08
284.085
284.09
284.095
284.1
284.104
284.109
284.114
284.118
284.123
284.127
284.131
284.135
284.14
284.143
284.147
284.151
284.155
284.158
284.162
284.165
284.169
284.172
284.175
284.178
284.181
282.506
282.507
282.508
282.509
282.511
282.514
282.517
282.52
282.524
282.528
282.533
282.538
282.543
282.548
282.554
282.56
282.567
282.574
282.58
282.588
282.595
282.602
282.61
282.618
282.626
282.634
282.642
282.65
282.658
282.666
282.675
282.683
282.691
282.7
282.708
282.716
282.725
282.733
282.741
282.749
282.758
282.766
282.773
282.781
282.789
282.797
282.804
282.812
282.819
282.827
282.834
282.841
282.848
282.854
282.861
282.868
282.874
282.88
282.886
282.892
282.898
282.904
282.91
282.915
282.921
282.926
282.931
282.936
282.941
282.945
282.95
282.954
282.959
282.963
282.967
282.971
282.975
282.979
282.982
282.986
281.182
281.183
281.184
281.186
281.189
281.192
281.196
281.201
281.206
281.212
281.218
281.224
281.231
281.239
281.247
281.255
281.264
281.273
281.282
281.291
281.301
281.311
281.321
281.332
281.342
281.353
281.363
281.374
281.385
281.396
281.407
281.418
281.429
281.44
281.451
281.462
281.473
281.484
281.495
281.506
281.516
281.527
281.537
281.547
281.558
281.567
281.577
281.587
281.597
281.606
281.615
281.624
281.633
281.642
281.65
281.658
281.667
281.674
281.682
281.69
281.697
281.704
281.711
281.718
281.725
281.731
281.738
281.744
281.75
281.755
281.761
281.766
281.771
281.776
281.781
281.786
281.791
281.795
281.799
281.803
279.828
279.829
279.831
279.834
279.837
279.842
279.847
279.853
279.86
279.868
279.876
279.885
279.895
279.905
279.916
279.927
279.938
279.95
279.963
279.976
279.989
280.002
280.016
280.03
280.044
280.058
280.073
280.087
280.102
280.117
280.131
280.146
280.161
280.176
280.19
280.205
280.219
280.234
280.248
280.262
280.276
280.29
280.304
280.317
280.331
280.344
280.356
280.369
280.382
280.394
280.406
280.417
280.429
280.44
280.451
280.461
280.472
280.482
280.492
280.501
280.511
280.52
280.528
280.537
280.545
280.553
280.561
280.568
280.576
280.583
280.589
280.596
280.602
280.608
280.614
280.62
280.625
280.63
280.635
280.64
278.433
278.435
278.437
278.441
278.446
278.452
278.46
278.468
278.477
278.488
278.499
278.511
278.524
278.538
278.553
278.568
278.584
278.6
278.617
278.634
278.652
278.67
278.689
278.708
278.727
278.746
278.766
278.786
278.805
278.825
278.845
278.865
278.885
278.905
278.925
278.944
278.964
278.983
279.002
279.021
279.04
279.058
279.076
279.094
279.112
279.129
279.146
279.163
279.179
279.195
279.211
279.226
279.241
279.255
279.269
279.283
279.296
279.309
279.322
279.334
279.346
279.357
279.368
279.379
279.389
279.399
279.409
279.418
279.427
279.436
279.444
279.452
279.459
279.466
279.473
279.48
279.486
279.492
279.498
279.503
276.983
276.985
276.989
276.994
277.001
277.009
277.019
277.031
277.044
277.058
277.073
277.09
277.108
277.127
277.147
277.167
277.189
277.211
277.235
277.258
277.283
277.308
277.333
277.359
277.385
277.412
277.439
277.465
277.492
277.52
277.547
277.574
277.601
277.628
277.655
277.681
277.708
277.734
277.76
277.785
277.811
277.835
277.86
277.884
277.907
277.931
277.953
277.975
277.997
278.018
278.039
278.059
278.078
278.097
278.116
278.134
278.151
278.168
278.184
278.199
278.215
278.229
278.243
278.257
278.269
278.282
278.294
278.305
278.316
278.326
278.336
278.345
278.354
278.363
278.371
278.378
278.386
278.392
278.399
278.405
275.458
275.46
275.465
275.472
275.482
275.493
275.507
275.523
275.54
275.56
275.581
275.604
275.629
275.654
275.682
275.71
275.74
275.771
275.803
275.836
275.869
275.904
275.939
275.974
276.01
276.047
276.084
276.121
276.158
276.195
276.232
276.27
276.307
276.344
276.381
276.417
276.454
276.49
276.525
276.56
276.594
276.628
276.661
276.694
276.726
276.757
276.788
276.818
276.847
276.875
276.903
276.929
276.955
276.98
277.005
277.028
277.051
277.073
277.094
277.114
277.133
277.152
277.17
277.187
277.203
277.218
277.233
277.247
277.26
277.273
277.284
277.295
277.306
277.316
277.325
277.333
277.341
277.348
277.355
277.361
273.828
273.831
273.838
273.848
273.861
273.877
273.896
273.917
273.942
273.968
273.997
274.029
274.062
274.098
274.136
274.175
274.216
274.259
274.302
274.348
274.394
274.442
274.49
274.539
274.589
274.64
274.691
274.742
274.794
274.846
274.898
274.95
275.001
275.053
275.104
275.155
275.205
275.255
275.304
275.352
275.4
275.446
275.492
275.537
275.581
275.624
275.666
275.707
275.747
275.785
275.823
275.859
275.894
275.927
275.96
275.991
276.021
276.05
276.077
276.104
276.129
276.153
276.175
276.197
276.217
276.236
276.254
276.271
276.287
276.302
276.316
276.329
276.341
276.351
276.361
276.37
276.379
276.386
276.393
276.398
272.057
272.061
272.07
272.084
272.101
272.123
272.149
272.178
272.211
272.247
272.287
272.33
272.376
272.425
272.476
272.53
272.586
272.645
272.706
272.768
272.832
272.898
272.965
273.033
273.103
273.173
273.245
273.316
273.389
273.461
273.534
273.606
273.679
273.751
273.823
273.895
273.965
274.035
274.104
274.173
274.239
274.305
274.37
274.433
274.494
274.555
274.613
274.67
274.725
274.778
274.83
274.88
274.928
274.974
275.018
275.06
275.1
275.139
275.175
275.21
275.243
275.274
275.303
275.33
275.355
275.379
275.401
275.422
275.44
275.458
275.473
275.487
275.5
275.511
275.521
275.53
275.537
275.544
275.549
275.553
270.093
270.099
270.111
270.129
270.153
270.182
270.216
270.255
270.299
270.348
270.402
270.46
270.522
270.587
270.657
270.731
270.807
270.887
270.97
271.056
271.144
271.235
271.328
271.423
271.519
271.617
271.717
271.817
271.919
272.021
272.124
272.227
272.33
272.433
272.535
272.637
272.738
272.838
272.938
273.035
273.131
273.226
273.319
273.409
273.498
273.584
273.668
273.749
273.828
273.903
273.977
274.047
274.114
274.178
274.24
274.298
274.353
274.406
274.455
274.501
274.544
274.585
274.622
274.657
274.688
274.718
274.744
274.768
274.789
274.808
274.824
274.838
274.85
274.86
274.868
274.874
274.878
274.88
274.88
274.879
267.873
267.881
267.897
267.92
267.951
267.988
268.033
268.084
268.142
268.206
268.276
268.352
268.434
268.521
268.614
268.711
268.814
268.921
269.033
269.148
269.268
269.392
269.519
269.649
269.783
269.919
270.057
270.198
270.341
270.486
270.631
270.778
270.926
271.074
271.222
271.37
271.517
271.664
271.809
271.953
272.095
272.235
272.372
272.507
272.638
272.766
272.89
273.011
273.127
273.24
273.347
273.45
273.548
273.642
273.73
273.813
273.892
273.965
274.033
274.096
274.154
274.207
274.256
274.299
274.338
274.372
274.402
274.428
274.449
274.467
274.481
274.491
274.498
274.501
274.501
274.499
274.493
274.485
274.474
274.462
265.321
265.331
265.35
265.379
265.417
265.464
265.52
265.584
265.656
265.737
265.825
265.921
266.025
266.136
266.255
266.38
266.512
266.651
266.797
266.949
267.107
267.271
267.44
267.615
267.796
267.981
268.171
268.366
268.565
268.768
268.974
269.183
269.396
269.61
269.827
270.045
270.264
270.483
270.702
270.921
271.138
271.353
271.565
271.774
271.979
272.18
272.375
272.564
272.747
272.922
273.09
273.25
273.402
273.546
273.68
273.805
273.922
274.029
274.127
274.216
274.295
274.366
274.428
274.482
274.527
274.564
274.594
274.615
274.63
274.638
274.64
274.635
274.625
274.609
274.589
274.564
274.534
274.501
274.464
274.424
262.356
262.367
262.39
262.424
262.468
262.523
262.588
262.664
262.749
262.844
262.949
263.064
263.188
263.321
263.464
263.615
263.776
263.946
264.125
264.314
264.511
264.717
264.931
265.155
265.388
265.629
265.879
266.137
266.405
266.68
266.964
267.256
267.556
267.863
268.178
268.499
268.827
269.161
269.5
269.843
270.19
270.539
270.888
271.237
271.582
271.923
272.256
272.581
272.895
273.198
273.486
273.759
274.016
274.256
274.479
274.684
274.87
275.039
275.188
275.32
275.434
275.53
275.608
275.67
275.715
275.745
275.759
275.759
275.746
275.719
275.68
275.629
275.569
275.498
275.42
275.334
275.241
275.144
275.044
274.941
258.909
258.921
258.946
258.982
259.03
259.089
259.159
259.241
259.333
259.436
259.55
259.675
259.81
259.956
260.113
260.28
260.458
260.648
260.848
261.059
261.282
261.516
261.763
262.021
262.292
262.576
262.873
263.183
263.509
263.848
264.204
264.575
264.964
265.37
265.795
266.24
266.706
267.195
267.707
268.244
268.808
269.401
270.025
270.681
271.374
272.158
273.024
273.915
274.801
275.669
276.509
277.316
278.085
278.811
279.491
280.12
280.695
281.213
281.671
282.068
282.401
282.668
282.87
283.005
283.073
283.074
283.009
282.878
282.684
282.428
282.112
281.739
281.312
280.835
280.31
279.74
279.13
278.482
277.801
277.088
254.945
254.957
254.98
255.016
255.062
255.12
255.188
255.267
255.357
255.457
255.568
255.689
255.82
255.962
256.114
256.276
256.449
256.633
256.827
257.032
257.247
257.474
257.713
257.963
258.225
258.5
258.788
259.089
259.403
259.732
260.077
260.437
260.814
261.209
261.622
262.056
262.511
262.988
263.491
264.02
264.578
265.168
265.792
266.453
267.427
271.1
276.6
282.487
288.271
293.777
298.928
303.687
308.032
311.954
315.448
318.517
321.165
323.398
325.224
326.652
327.688
328.345
328.631
328.553
328.119
327.333
326.196
324.713
322.884
320.71
318.192
315.33
312.121
308.564
304.657
300.395
295.777
290.798
285.456
279.746
250.477
250.488
250.509
250.539
250.58
250.63
250.69
250.759
250.837
250.924
251.02
251.124
251.237
251.359
251.488
251.626
251.772
251.926
252.088
252.258
252.435
252.62
252.813
253.013
253.221
253.436
253.657
253.886
254.121
254.362
254.61
254.863
255.121
255.385
255.652
255.922
256.195
256.469
256.744
257.017
257.287
257.552
257.81
258.079
263.525
271.247
278.347
284.839
290.76
296.144
301.018
305.407
309.331
312.807
315.852
318.481
320.706
322.54
323.994
325.078
325.803
326.169
326.181
325.847
325.17
324.154
322.805
321.124
319.116
316.782
314.124
311.144
307.844
304.223
300.283
296.024
291.445
286.547
281.328
275.789
245.568
245.577
245.594
245.618
245.651
245.691
245.738
245.793
245.855
245.924
245.999
246.081
246.169
246.263
246.363
246.468
246.58
246.696
246.818
246.944
247.076
247.211
247.351
247.495
247.643
247.794
247.948
248.105
248.264
248.426
248.589
248.754
248.919
249.085
249.252
249.417
249.582
249.746
249.908
250.067
250.223
250.377
250.526
250.85
257.083
263.383
269.254
274.693
279.708
284.308
288.503
292.303
295.717
298.756
301.428
303.742
305.709
307.335
308.631
309.602
310.258
310.605
310.65
310.401
309.864
309.047
307.954
306.593
304.97
303.09
300.96
298.586
295.974
293.131
290.062
286.775
283.276
279.572
275.67
271.579
240.306
240.312
240.325
240.343
240.367
240.397
240.432
240.472
240.518
240.568
240.623
240.682
240.746
240.813
240.885
240.96
241.039
241.12
241.205
241.293
241.383
241.476
241.57
241.667
241.765
241.864
241.964
242.065
242.167
242.269
242.371
242.472
242.573
242.673
242.771
242.868
242.963
243.056
243.147
243.235
243.32
243.402
243.481
243.698
247.901
253.109
258.018
262.594
266.84
270.761
274.362
277.649
280.627
283.302
285.681
287.769
289.574
291.102
292.359
293.351
294.086
294.569
294.808
294.809
294.579
294.125
293.453
292.569
291.481
290.195
288.717
287.055
285.216
283.205
281.03
278.699
276.218
273.595
270.837
267.951
234.781
234.785
234.794
234.806
234.823
234.844
234.868
234.896
234.927
234.962
235
235.04
235.083
235.129
235.177
235.228
235.28
235.335
235.39
235.448
235.506
235.566
235.626
235.687
235.749
235.81
235.872
235.934
235.995
236.055
236.115
236.173
236.231
236.287
236.341
236.393
236.444
236.492
236.538
236.581
236.621
236.658
236.693
236.754
238.871
243.306
247.58
251.581
255.311
258.774
261.974
264.915
267.603
270.04
272.234
274.188
275.908
277.399
278.666
279.716
280.552
281.181
281.609
281.84
281.881
281.737
281.414
280.917
280.252
279.425
278.44
277.304
276.022
274.599
273.04
271.352
269.54
267.608
265.563
263.408
229.071
229.074
229.08
229.088
229.099
229.113
229.129
229.148
229.168
229.191
229.215
229.242
229.27
229.299
229.33
229.362
229.396
229.43
229.465
229.501
229.537
229.574
229.611
229.648
229.684
229.721
229.757
229.793
229.828
229.862
229.895
229.928
229.958
229.988
230.016
230.042
230.066
230.088
230.108
230.126
230.142
230.154
230.164
230.173
230.882
234.647
238.505
242.135
245.533
248.704
251.65
254.376
256.886
259.184
261.273
263.16
264.847
266.339
267.641
268.757
269.693
270.451
271.037
271.456
271.713
271.811
271.756
271.552
271.204
270.716
270.094
269.34
268.46
267.458
266.339
265.106
263.764
262.318
260.771
259.127
223.24
223.242
223.245
223.251
223.258
223.266
223.276
223.288
223.301
223.315
223.33
223.347
223.364
223.383
223.402
223.421
223.442
223.463
223.484
223.505
223.527
223.549
223.571
223.593
223.614
223.636
223.657
223.677
223.697
223.717
223.735
223.753
223.77
223.787
223.802
223.816
223.83
223.842
223.853
223.863
223.872
223.879
223.885
223.891
224.083
227.022
230.593
233.981
237.168
240.157
242.95
245.552
247.964
250.191
252.236
254.102
255.794
257.315
258.669
259.859
260.89
261.765
262.489
263.064
263.496
263.788
263.943
263.966
263.861
263.632
263.282
262.814
262.233
261.542
260.746
259.846
258.848
257.754
256.568
255.293
217.331
217.332
217.334
217.338
217.342
217.347
217.353
217.36
217.368
217.376
217.385
217.395
217.405
217.416
217.427
217.439
217.451
217.463
217.475
217.487
217.5
217.512
217.525
217.537
217.549
217.561
217.573
217.584
217.596
217.606
217.617
217.627
217.636
217.645
217.654
217.662
217.67
217.678
217.685
217.691
217.697
217.703
217.709
217.714
217.759
219.636
223.06
226.355
229.465
232.393
235.142
237.714
240.112
242.341
244.404
246.303
248.043
249.626
251.056
252.338
253.473
254.466
255.32
256.038
256.625
257.083
257.416
257.627
257.72
257.699
257.566
257.324
256.978
256.529
255.982
255.339
254.603
253.777
252.865
251.869
211.376
211.376
211.378
211.379
211.382
211.385
211.388
211.392
211.396
211.4
211.405
211.411
211.416
211.422
211.428
211.434
211.44
211.447
211.453
211.459
211.466
211.472
211.478
211.484
211.49
211.496
211.501
211.506
211.511
211.516
211.52
211.525
211.528
211.532
211.535
211.538
211.54
211.542
211.544
211.545
211.546
211.547
211.548
211.548
211.55
212.399
215.715
219.015
222.141
225.091
227.869
230.479
232.924
235.207
237.333
239.303
241.123
242.794
244.321
245.707
246.955
248.069
249.051
249.905
250.635
251.243
251.733
252.108
252.372
252.526
252.575
252.521
252.368
252.118
251.774
251.339
250.817
250.209
249.519
248.749
205.395
205.395
205.396
205.396
205.397
205.399
205.4
205.402
205.404
205.406
205.408
205.41
205.413
205.415
205.418
205.42
205.423
205.425
205.427
205.43
205.432
205.434
205.436
205.438
205.439
205.441
205.442
205.443
205.443
205.443
205.443
205.443
205.442
205.441
205.439
205.437
205.434
205.431
205.427
205.422
205.417
205.411
205.404
205.396
205.387
205.667
208.706
212.037
215.207
218.209
221.045
223.719
226.234
228.593
230.8
232.858
234.77
236.539
238.169
239.662
241.023
242.253
243.356
244.335
245.194
245.934
246.56
247.074
247.48
247.779
247.976
248.072
248.071
247.976
247.789
247.513
247.15
246.704
246.177
245.571
199.402
199.402
199.402
199.402
199.402
199.403
199.403
199.403
199.403
199.404
199.404
199.404
199.405
199.405
199.405
199.405
199.405
199.405
199.405
199.405
199.404
199.404
199.403
199.402
199.402
199.4
199.399
199.398
199.396
199.394
199.392
199.39
199.388
199.385
199.382
199.379
199.376
199.372
199.369
199.365
199.361
199.357
199.352
199.348
199.343
199.415
201.789
205.172
208.421
211.506
214.431
217.197
219.808
222.266
224.575
226.737
228.756
230.635
232.376
233.983
235.458
236.805
238.026
239.125
240.104
240.966
241.713
242.35
242.878
243.3
243.619
243.837
243.958
243.984
243.917
243.76
243.515
243.185
242.772
242.279
193.406
193.406
193.406
193.406
193.405
193.405
193.404
193.404
193.403
193.402
193.401
193.4
193.399
193.397
193.396
193.394
193.393
193.391
193.389
193.387
193.385
193.382
193.38
193.377
193.375
193.372
193.369
193.366
193.363
193.359
193.356
193.353
193.349
193.346
193.342
193.339
193.335
193.332
193.329
193.325
193.322
193.319
193.317
193.315
193.313
193.318
194.624
198.087
201.483
204.713
207.781
210.687
213.436
216.031
218.476
220.773
222.925
224.936
226.808
228.545
230.15
231.625
232.974
234.199
235.303
236.289
237.16
237.919
238.567
239.109
239.545
239.88
240.116
240.254
240.298
240.25
240.112
239.887
239.578
239.186
187.415
187.415
187.414
187.414
187.413
187.412
187.411
187.409
187.408
187.406
187.404
187.402
187.399
187.397
187.394
187.391
187.388
187.385
187.381
187.378
187.374
187.37
187.366
187.361
187.357
187.352
187.348
187.343
187.338
187.333
187.327
187.322
187.316
187.311
187.305
187.299
187.293
187.287
187.281
187.275
187.269
187.263
187.256
187.25
187.244
187.239
187.668
191.057
194.61
198.002
201.228
204.292
207.196
209.945
212.541
214.988
217.288
219.446
221.463
223.343
225.089
226.704
228.191
229.552
230.791
231.91
232.913
233.801
234.577
235.245
235.806
236.264
236.621
236.879
237.041
237.11
237.088
236.978
236.782
236.503
181.433
181.433
181.432
181.431
181.43
181.428
181.427
181.424
181.422
181.42
181.417
181.414
181.41
181.407
181.403
181.399
181.394
181.39
181.385
181.38
181.375
181.369
181.364
181.358
181.352
181.345
181.339
181.332
181.325
181.318
181.31
181.303