/*--------------------------------*- C++ -*----------------------------------*\
  =========                 |
  \\      /  F ield         | OpenFOAM: The Open Source CFD Toolbox
   \\    /   O peration     | Website:  https://openfoam.org
    \\  /    A nd           | Version:  8
     \\/     M anipulation  |
\*---------------------------------------------------------------------------*/
FoamFile
{
    version     2.0;
    format      ascii;
    class       surfaceScalarField;
    location    "3000";
    object      phi;
}
// * * * * * * * * * * * * * * * * * * * * * * * * * * * * * * * * * * * * * //

dimensions      [0 3 -1 0 0 0 0];

internalField   nonuniform List<scalar> 
25360
(
-9.29215e-10
9.29215e-10
-1.84955e-09
9.2033e-10
-2.76034e-09
9.10791e-10
-3.66097e-09
9.00636e-10
-4.55087e-09
8.89903e-10
-5.42951e-09
8.78631e-10
-6.29636e-09
8.66857e-10
-7.15098e-09
8.54615e-10
-7.99292e-09
8.41943e-10
-8.82179e-09
8.28873e-10
-9.63723e-09
8.15438e-10
-1.04389e-08
8.01671e-10
-1.12265e-08
7.87602e-10
-1.19998e-08
7.73262e-10
-1.27584e-08
7.5868e-10
-1.35023e-08
7.43882e-10
-1.42312e-08
7.28897e-10
-1.4945e-08
7.1375e-10
-1.56434e-08
6.98466e-10
-1.63265e-08
6.83068e-10
-1.69941e-08
6.67579e-10
-1.76461e-08
6.52021e-10
-1.82825e-08
6.36414e-10
-1.89033e-08
6.20779e-10
-1.95084e-08
6.05134e-10
-2.00979e-08
5.89497e-10
-2.06718e-08
5.73884e-10
-2.12301e-08
5.58312e-10
-2.17729e-08
5.42796e-10
-2.23003e-08
5.2735e-10
-2.28123e-08
5.11988e-10
-2.3309e-08
4.96722e-10
-2.37905e-08
4.81564e-10
-2.42571e-08
4.66526e-10
-2.47087e-08
4.51617e-10
-2.51455e-08
4.36847e-10
-2.55678e-08
4.22226e-10
-2.59755e-08
4.07761e-10
-2.6369e-08
3.9346e-10
-2.67483e-08
3.79331e-10
-2.71137e-08
3.65379e-10
-2.74653e-08
3.51612e-10
-2.78033e-08
3.38033e-10
-2.8128e-08
3.24648e-10
-2.84394e-08
3.11461e-10
-2.87379e-08
2.98476e-10
-2.90236e-08
2.85697e-10
-2.92968e-08
2.73127e-10
-2.95575e-08
2.60767e-10
-2.98061e-08
2.48621e-10
-3.00428e-08
2.36691e-10
-3.02678e-08
2.24976e-10
-3.04813e-08
2.1348e-10
-3.06835e-08
2.02202e-10
-3.08746e-08
1.91143e-10
-3.10549e-08
1.80304e-10
-3.12246e-08
1.69684e-10
-3.13839e-08
1.59283e-10
-3.1533e-08
1.49101e-10
-3.16721e-08
1.39136e-10
-3.18015e-08
1.29389e-10
-3.19214e-08
1.19857e-10
-3.20319e-08
1.1054e-10
-3.21334e-08
1.01436e-10
-3.22259e-08
9.25433e-11
-3.23098e-08
8.38604e-11
-3.23852e-08
7.53852e-11
-3.24523e-08
6.71157e-11
-3.25113e-08
5.90498e-11
-3.25625e-08
5.11854e-11
-3.2606e-08
4.35199e-11
-3.26421e-08
3.60511e-11
-3.26708e-08
2.87764e-11
-3.26925e-08
2.16933e-11
-3.27073e-08
1.47991e-11
-3.27154e-08
8.09117e-12
-3.2717e-08
1.56676e-12
-3.27122e-08
-4.7769e-12
-3.27013e-08
-1.09426e-11
-1.69333e-11
-3.26843e-08
-9.61595e-10
1.89081e-09
-1.91399e-09
1.87272e-09
-2.85649e-09
1.8533e-09
-3.78847e-09
1.83261e-09
-4.70931e-09
1.81074e-09
-5.61845e-09
1.78777e-09
-6.51536e-09
1.76377e-09
-7.39956e-09
1.73882e-09
-8.2706e-09
1.71298e-09
-9.12805e-09
1.68633e-09
-9.97154e-09
1.65893e-09
-1.08007e-08
1.63085e-09
-1.16153e-08
1.60216e-09
-1.24149e-08
1.57292e-09
-1.31994e-08
1.54317e-09
-1.39685e-08
1.51299e-09
-1.47221e-08
1.48243e-09
-1.54599e-08
1.45153e-09
-1.61817e-08
1.42035e-09
-1.68876e-08
1.38895e-09
-1.75774e-08
1.35735e-09
-1.8251e-08
1.32562e-09
-1.89084e-08
1.29379e-09
-1.95495e-08
1.2619e-09
-2.01744e-08
1.23e-09
-2.0783e-08
1.1981e-09
-2.13753e-08
1.16627e-09
-2.19515e-08
1.13451e-09
-2.25116e-08
1.10287e-09
-2.30557e-08
1.07138e-09
-2.35837e-08
1.04006e-09
-2.40959e-08
1.00894e-09
-2.45924e-08
9.78035e-10
-2.50733e-08
9.4738e-10
-2.55386e-08
9.16991e-10
-2.59887e-08
8.86888e-10
-2.64235e-08
8.57089e-10
-2.68434e-08
8.27612e-10
-2.72484e-08
7.98471e-10
-2.76388e-08
7.69682e-10
-2.80146e-08
7.41258e-10
-2.83762e-08
7.13211e-10
-2.87238e-08
6.8555e-10
-2.90574e-08
6.58288e-10
-2.93774e-08
6.31431e-10
-2.96839e-08
6.04989e-10
-2.99771e-08
5.78968e-10
-3.02574e-08
5.53374e-10
-3.05248e-08
5.28212e-10
-3.07797e-08
5.03487e-10
-3.10222e-08
4.79203e-10
-3.12526e-08
4.55362e-10
-3.14711e-08
4.31967e-10
-3.16779e-08
4.09019e-10
-3.18733e-08
3.86519e-10
-3.20574e-08
3.64469e-10
-3.22306e-08
3.42866e-10
-3.23931e-08
3.21712e-10
-3.2545e-08
3.01005e-10
-3.26866e-08
2.80743e-10
-3.28181e-08
2.60925e-10
-3.29398e-08
2.41547e-10
-3.30519e-08
2.22608e-10
-3.31545e-08
2.04105e-10
-3.3248e-08
1.86033e-10
-3.33325e-08
1.68389e-10
-3.34083e-08
1.5117e-10
-3.34756e-08
1.34371e-10
-3.35345e-08
1.17987e-10
-3.35854e-08
1.02015e-10
-3.36283e-08
8.64486e-11
-3.36635e-08
7.12836e-11
-3.36913e-08
5.65148e-11
-3.37117e-08
4.21367e-11
-3.3725e-08
2.8144e-11
-3.37315e-08
1.45311e-11
-3.37312e-08
1.29246e-12
-3.37244e-08
-1.15777e-11
-3.37113e-08
-2.4085e-11
-3.62355e-11
-3.3692e-08
-1.02782e-09
2.91863e-09
-2.04579e-09
2.89069e-09
-3.05315e-09
2.86066e-09
-4.04921e-09
2.82867e-09
-5.03331e-09
2.79484e-09
-6.00484e-09
2.75929e-09
-6.9632e-09
2.72214e-09
-7.90789e-09
2.6835e-09
-8.83839e-09
2.64348e-09
-9.75427e-09
2.6022e-09
-1.06551e-08
2.55976e-09
-1.15405e-08
2.51626e-09
-1.24101e-08
2.4718e-09
-1.32637e-08
2.42648e-09
-1.41009e-08
2.38039e-09
-1.49215e-08
2.33361e-09
-1.57254e-08
2.28624e-09
-1.65122e-08
2.23836e-09
-1.72819e-08
2.19004e-09
-1.80343e-08
2.14137e-09
-1.87694e-08
2.09241e-09
-1.9487e-08
2.04323e-09
-2.01871e-08
1.9939e-09
-2.08697e-08
1.94449e-09
-2.15347e-08
1.89505e-09
-2.21823e-08
1.84564e-09
-2.28123e-08
1.79631e-09
-2.34249e-08
1.74712e-09
-2.40201e-08
1.69811e-09
-2.45981e-08
1.64933e-09
-2.51589e-08
1.60083e-09
-2.57026e-08
1.55263e-09
-2.62293e-08
1.50478e-09
-2.67393e-08
1.45732e-09
-2.72325e-08
1.41028e-09
-2.77093e-08
1.36368e-09
-2.81698e-08
1.31757e-09
-2.86142e-08
1.27195e-09
-2.90425e-08
1.22686e-09
-2.94552e-08
1.18233e-09
-2.98523e-08
1.13836e-09
-3.02341e-08
1.09498e-09
-3.06007e-08
1.05221e-09
-3.09525e-08
1.01006e-09
-3.12896e-08
9.68544e-10
-3.16123e-08
9.27675e-10
-3.19208e-08
8.87463e-10
-3.22153e-08
8.47917e-10
-3.24962e-08
8.09046e-10
-3.27635e-08
7.70857e-10
-3.30177e-08
7.33354e-10
-3.32589e-08
6.96542e-10
-3.34873e-08
6.60425e-10
-3.37033e-08
6.25006e-10
-3.39071e-08
5.90284e-10
-3.40989e-08
5.56261e-10
-3.42789e-08
5.22937e-10
-3.44475e-08
4.9031e-10
-3.46049e-08
4.58379e-10
-3.47513e-08
4.2714e-10
-3.4887e-08
3.96591e-10
-3.50122e-08
3.66728e-10
-3.51271e-08
3.37546e-10
-3.5232e-08
3.09041e-10
-3.53272e-08
2.81207e-10
-3.54129e-08
2.54038e-10
-3.54892e-08
2.27527e-10
-3.55565e-08
2.01669e-10
-3.5615e-08
1.76457e-10
-3.56648e-08
1.51882e-10
-3.57063e-08
1.27937e-10
-3.57397e-08
1.04615e-10
-3.57651e-08
8.19068e-11
-3.57827e-08
5.98045e-11
-3.57929e-08
3.82995e-11
-3.57957e-08
1.7383e-11
-3.57915e-08
-2.95379e-12
-3.57803e-08
-2.27198e-11
-3.57625e-08
-4.19243e-11
-6.05762e-11
-3.57382e-08
-1.13091e-09
4.04954e-09
-2.25096e-09
4.01074e-09
-3.35929e-09
3.969e-09
-4.45511e-09
3.92449e-09
-5.53768e-09
3.8774e-09
-6.60628e-09
3.82789e-09
-7.66027e-09
3.77613e-09
-8.69906e-09
3.72228e-09
-9.72208e-09
3.6665e-09
-1.07288e-08
3.60894e-09
-1.17188e-08
3.54975e-09
-1.26916e-08
3.48907e-09
-1.36468e-08
3.42704e-09
-1.45842e-08
3.36381e-09
-1.55033e-08
3.2995e-09
-1.64039e-08
3.23423e-09
-1.72858e-08
3.16812e-09
-1.81487e-08
3.1013e-09
-1.89926e-08
3.03388e-09
-1.98171e-08
2.96595e-09
-2.06224e-08
2.89763e-09
-2.14082e-08
2.82902e-09
-2.21744e-08
2.76019e-09
-2.29212e-08
2.69125e-09
-2.36484e-08
2.62228e-09
-2.43562e-08
2.55336e-09
-2.50444e-08
2.48456e-09
-2.57132e-08
2.41595e-09
-2.63627e-08
2.34761e-09
-2.6993e-08
2.2796e-09
-2.76042e-08
2.21198e-09
-2.81963e-08
2.1448e-09
-2.87697e-08
2.07812e-09
-2.93243e-08
2.01199e-09
-2.98605e-08
1.94645e-09
-3.03784e-08
1.88154e-09
-3.08781e-08
1.81732e-09
-3.136e-08
1.7538e-09
-3.18241e-08
1.69103e-09
-3.22709e-08
1.62904e-09
-3.27003e-08
1.56786e-09
-3.31129e-08
1.50751e-09
-3.35087e-08
1.44801e-09
-3.3888e-08
1.38939e-09
-3.42511e-08
1.33167e-09
-3.45983e-08
1.27485e-09
-3.49298e-08
1.21897e-09
-3.52459e-08
1.16402e-09
-3.55469e-08
1.11003e-09
-3.5833e-08
1.05699e-09
-3.61046e-08
1.00492e-09
-3.63619e-08
9.53827e-10
-3.66052e-08
9.03707e-10
-3.68347e-08
8.54568e-10
-3.70509e-08
8.06409e-10
-3.72538e-08
7.59233e-10
-3.74439e-08
7.13037e-10
-3.76214e-08
6.67821e-10
-3.77866e-08
6.2358e-10
-3.79398e-08
5.80312e-10
-3.80812e-08
5.38011e-10
-3.82112e-08
4.96671e-10
-3.83299e-08
4.56286e-10
-3.84377e-08
4.16848e-10
-3.85349e-08
3.78351e-10
-3.86216e-08
3.40785e-10
-3.86982e-08
3.0414e-10
-3.8765e-08
2.68408e-10
-3.88221e-08
2.33579e-10
-3.88698e-08
1.99641e-10
-3.89085e-08
1.66584e-10
-3.89383e-08
1.34396e-10
-3.89594e-08
1.03065e-10
-3.89722e-08
7.2581e-11
-3.89768e-08
4.293e-11
-3.89736e-08
1.41e-11
-3.89626e-08
-1.39215e-11
-3.89442e-08
-4.11475e-11
-3.89185e-08
-6.75908e-11
-9.32645e-11
-3.88858e-08
-1.27569e-09
5.32524e-09
-2.53909e-09
5.27414e-09
-3.7892e-09
5.21911e-09
-5.02509e-09
5.16038e-09
-6.24588e-09
5.09819e-09
-7.45076e-09
5.03277e-09
-8.63896e-09
4.96434e-09
-9.80978e-09
4.8931e-09
-1.09626e-08
4.81929e-09
-1.20967e-08
4.7431e-09
-1.32117e-08
4.66473e-09
-1.4307e-08
4.58437e-09
-1.53822e-08
4.50222e-09
-1.64368e-08
4.41846e-09
-1.74706e-08
4.33325e-09
-1.84831e-08
4.24677e-09
-1.94742e-08
4.15919e-09
-2.04435e-08
4.07065e-09
-2.1391e-08
3.98131e-09
-2.23163e-08
3.89131e-09
-2.32195e-08
3.8008e-09
-2.41004e-08
3.70989e-09
-2.49589e-08
3.61871e-09
-2.5795e-08
3.5274e-09
-2.66088e-08
3.43604e-09
-2.74002e-08
3.34477e-09
-2.81693e-08
3.25367e-09
-2.89162e-08
3.16284e-09
-2.9641e-08
3.07238e-09
-3.03437e-08
2.98237e-09
-3.10247e-08
2.89289e-09
-3.16839e-08
2.80401e-09
-3.23216e-08
2.71581e-09
-3.29379e-08
2.62835e-09
-3.35332e-08
2.5417e-09
-3.41075e-08
2.45591e-09
-3.46612e-08
2.37103e-09
-3.51946e-08
2.28711e-09
-3.57077e-08
2.2042e-09
-3.6201e-08
2.12234e-09
-3.66747e-08
2.04157e-09
-3.71292e-08
1.96192e-09
-3.75646e-08
1.88342e-09
-3.79813e-08
1.8061e-09
-3.83796e-08
1.72998e-09
-3.87598e-08
1.65509e-09
-3.91223e-08
1.58144e-09
-3.94673e-08
1.50905e-09
-3.97952e-08
1.43794e-09
-4.01063e-08
1.36811e-09
-4.0401e-08
1.29958e-09
-4.06795e-08
1.23235e-09
-4.09422e-08
1.16643e-09
-4.11895e-08
1.10181e-09
-4.14216e-08
1.03852e-09
-4.16389e-08
9.7653e-10
-4.18417e-08
9.15855e-10
-4.20304e-08
8.56487e-10
-4.22052e-08
7.98422e-10
-4.23665e-08
7.41654e-10
-4.25147e-08
6.86175e-10
-4.265e-08
6.31978e-10
-4.27728e-08
5.79053e-10
-4.28833e-08
5.27391e-10
-4.29819e-08
4.76979e-10
-4.3069e-08
4.27805e-10
-4.31447e-08
3.79859e-10
-4.32094e-08
3.33124e-10
-4.32634e-08
2.87589e-10
-4.3307e-08
2.43238e-10
-4.33405e-08
2.00056e-10
-4.33641e-08
1.58027e-10
-4.33782e-08
1.17136e-10
-4.3383e-08
7.73656e-11
-4.33787e-08
3.86998e-11
-4.33658e-08
1.1213e-12
-4.33443e-08
-3.5387e-11
-4.33146e-08
-7.08427e-11
-4.32769e-08
-1.05263e-10
-1.38666e-10
-4.32315e-08
-1.46911e-09
6.79435e-09
-2.92401e-09
6.72904e-09
-4.36351e-09
6.6586e-09
-5.78647e-09
6.58334e-09
-7.19185e-09
6.50357e-09
-8.57867e-09
6.41959e-09
-9.94601e-09
6.33168e-09
-1.1293e-08
6.24012e-09
-1.26189e-08
6.1452e-09
-1.3923e-08
6.04719e-09
-1.52046e-08
5.94634e-09
-1.64632e-08
5.8429e-09
-1.76981e-08
5.73714e-09
-1.89089e-08
5.62927e-09
-2.00952e-08
5.51954e-09
-2.12566e-08
5.40816e-09
-2.23927e-08
5.29535e-09
-2.35034e-08
5.18131e-09
-2.45883e-08
5.06623e-09
-2.56473e-08
4.95031e-09
-2.66802e-08
4.83373e-09
-2.7687e-08
4.71665e-09
-2.86675e-08
4.59924e-09
-2.96218e-08
4.48166e-09
-3.05498e-08
4.36406e-09
-3.14516e-08
4.24657e-09
-3.23273e-08
4.12932e-09
-3.31769e-08
4.01245e-09
-3.40006e-08
3.89608e-09
-3.47985e-08
3.7803e-09
-3.55709e-08
3.66524e-09
-3.63178e-08
3.55098e-09
-3.70396e-08
3.43761e-09
-3.77365e-08
3.32524e-09
-3.84087e-08
3.21392e-09
-3.90566e-08
3.10375e-09
-3.96803e-08
2.99478e-09
-4.02803e-08
2.88708e-09
-4.08568e-08
2.78071e-09
-4.14102e-08
2.67572e-09
-4.19408e-08
2.57215e-09
-4.24489e-08
2.47006e-09
-4.2935e-08
2.36948e-09
-4.33993e-08
2.27045e-09
-4.38423e-08
2.173e-09
-4.42644e-08
2.07714e-09
-4.46659e-08
1.98292e-09
-4.50472e-08
1.89035e-09
-4.54087e-08
1.79945e-09
-4.57508e-08
1.71022e-09
-4.60739e-08
1.62269e-09
-4.63784e-08
1.53686e-09
-4.66647e-08
1.45273e-09
-4.69332e-08
1.37031e-09
-4.71843e-08
1.2896e-09
-4.74184e-08
1.2106e-09
-4.76359e-08
1.13331e-09
-4.78371e-08
1.05771e-09
-4.80225e-08
9.83813e-10
-4.81924e-08
9.11596e-10
-4.83473e-08
8.41054e-10
-4.84875e-08
7.72175e-10
-4.86134e-08
7.04946e-10
-4.87253e-08
6.39352e-10
-4.88237e-08
5.75379e-10
-4.89089e-08
5.13009e-10
-4.89813e-08
4.52226e-10
-4.90412e-08
3.93011e-10
-4.9089e-08
3.35346e-10
-4.91249e-08
2.79209e-10
-4.91495e-08
2.24582e-10
-4.91629e-08
1.71444e-10
-4.91655e-08
1.19771e-10
-4.91577e-08
6.95439e-11
-4.91397e-08
2.07387e-11
-4.91119e-08
-2.66668e-11
-4.90746e-08
-7.26956e-11
-4.90281e-08
-1.17371e-10
-4.89726e-08
-1.60716e-10
-2.02755e-10
-4.89086e-08
-1.72079e-09
8.51514e-09
-3.42486e-09
8.43311e-09
-5.11075e-09
8.34448e-09
-6.77706e-09
8.24966e-09
-8.42252e-09
8.14903e-09
-1.00459e-08
8.04298e-09
-1.16461e-08
7.93188e-09
-1.32221e-08
7.8161e-09
-1.47729e-08
7.69599e-09
-1.62976e-08
7.57191e-09
-1.77954e-08
7.44419e-09
-1.92657e-08
7.31315e-09
-2.07077e-08
7.17913e-09
-2.21208e-08
7.04242e-09
-2.35046e-08
6.90332e-09
-2.48586e-08
6.76211e-09
-2.61823e-08
6.61908e-09
-2.74755e-08
6.47449e-09
-2.87378e-08
6.32859e-09
-2.99691e-08
6.18162e-09
-3.11692e-08
6.03382e-09
-3.2338e-08
5.88541e-09
-3.34754e-08
5.7366e-09
-3.45813e-08
5.58759e-09
-3.56558e-08
5.43858e-09
-3.6699e-08
5.28973e-09
-3.77109e-08
5.14123e-09
-3.86917e-08
4.99324e-09
-3.96415e-08
4.84591e-09
-4.05606e-08
4.69938e-09
-4.14491e-08
4.55378e-09
-4.23074e-08
4.40925e-09
-4.31357e-08
4.2659e-09
-4.39343e-08
4.12384e-09
-4.47035e-08
3.98318e-09
-4.54438e-08
3.844e-09
-4.61554e-08
3.70639e-09
-4.68388e-08
3.57044e-09
-4.74943e-08
3.43622e-09
-4.81223e-08
3.30379e-09
-4.87234e-08
3.17322e-09
-4.92979e-08
3.04456e-09
-4.98463e-08
2.91786e-09
-5.0369e-08
2.79316e-09
-5.08665e-08
2.67051e-09
-5.13393e-08
2.54993e-09
-5.17878e-08
2.43145e-09
-5.22126e-08
2.31511e-09
-5.2614e-08
2.20092e-09
-5.29927e-08
2.08889e-09
-5.33491e-08
1.97905e-09
-5.36836e-08
1.87139e-09
-5.39968e-08
1.76593e-09
-5.42892e-08
1.66267e-09
-5.45612e-08
1.56161e-09
-5.48133e-08
1.46274e-09
-5.50461e-08
1.36605e-09
-5.52599e-08
1.27155e-09
-5.54553e-08
1.17922e-09
-5.56328e-08
1.08905e-09
-5.57927e-08
1.00101e-09
-5.59356e-08
9.1511e-10
-5.6062e-08
8.31314e-10
-5.61723e-08
7.49608e-10
-5.62669e-08
6.69969e-10
-5.63462e-08
5.92376e-10
-5.64108e-08
5.16805e-10
-5.6461e-08
4.43232e-10
-5.64973e-08
3.71631e-10
-5.65201e-08
3.01976e-10
-5.65297e-08
2.34238e-10
-5.65267e-08
1.68391e-10
-5.65113e-08
1.04406e-10
-5.6484e-08
4.22537e-11
-5.64452e-08
-1.80958e-11
-5.63952e-08
-7.66722e-11
-5.63344e-08
-1.33506e-10
-5.62631e-08
-1.88627e-10
-5.61818e-08
-2.42068e-10
-2.93857e-10
-5.60907e-08
-2.04379e-09
1.05589e-08
-4.06762e-09
1.04569e-08
-6.06966e-09
1.03465e-08
-8.04817e-09
1.02282e-08
-1.00015e-08
1.01024e-08
-1.19283e-08
9.96971e-09
-1.3827e-08
9.83056e-09
-1.56963e-08
9.68543e-09
-1.75351e-08
9.53478e-09
-1.93422e-08
9.37905e-09
-2.11167e-08
9.21868e-09
-2.28576e-08
9.05409e-09
-2.45642e-08
8.88568e-09
-2.62356e-08
8.71387e-09
-2.78713e-08
8.53902e-09
-2.94707e-08
8.3615e-09
-3.10333e-08
8.18168e-09
-3.25587e-08
7.99988e-09
-3.40466e-08
7.81644e-09
-3.54966e-08
7.63167e-09
-3.69087e-08
7.44587e-09
-3.82826e-08
7.25931e-09
-3.96182e-08
7.07228e-09
-4.09157e-08
6.88504e-09
-4.21749e-08
6.69782e-09
-4.33961e-08
6.51086e-09
-4.45792e-08
6.32438e-09
-4.57246e-08
6.13859e-09
-4.68323e-08
5.95368e-09
-4.79028e-08
5.76983e-09
-4.89362e-08
5.58722e-09
-4.9933e-08
5.406e-09
-5.08934e-08
5.22634e-09
-5.18179e-08
5.04836e-09
-5.27069e-08
4.87219e-09
-5.35609e-08
4.69797e-09
-5.43803e-08
4.52578e-09
-5.51656e-08
4.35575e-09
-5.59173e-08
4.18795e-09
-5.6636e-08
4.02248e-09
-5.73222e-08
3.8594e-09
-5.79764e-08
3.6988e-09
-5.85993e-08
3.54072e-09
-5.91914e-08
3.38523e-09
-5.97532e-08
3.23237e-09
-6.02855e-08
3.08217e-09
-6.07887e-08
2.93469e-09
-6.12635e-08
2.78994e-09
-6.17106e-08
2.64795e-09
-6.21304e-08
2.50875e-09
-6.25237e-08
2.37233e-09
-6.2891e-08
2.23872e-09
-6.3233e-08
2.10791e-09
-6.35503e-08
1.97992e-09
-6.38434e-08
1.85473e-09
-6.4113e-08
1.73234e-09
-6.43597e-08
1.61274e-09
-6.4584e-08
1.49592e-09
-6.47867e-08
1.38186e-09
-6.49682e-08
1.27055e-09
-6.51291e-08
1.16196e-09
-6.52701e-08
1.05607e-09
-6.53916e-08
9.52859e-10
-6.54943e-08
8.52296e-10
-6.55787e-08
7.54353e-10
-6.56453e-08
6.59e-10
-6.56947e-08
5.66205e-10
-6.57274e-08
4.75935e-10
-6.57439e-08
3.88156e-10
-6.57448e-08
3.02832e-10
-6.57305e-08
2.19927e-10
-6.57015e-08
1.39404e-10
-6.56583e-08
6.12245e-11
-6.56014e-08
-1.46498e-11
-6.55313e-08
-8.82579e-11
-6.54483e-08
-1.59639e-10
-6.5353e-08
-2.28834e-10
-6.52457e-08
-2.95882e-10
-6.5127e-08
-3.60823e-10
-4.23699e-10
-6.49971e-08
-2.45568e-09
1.30146e-08
-4.88724e-09
1.28885e-08
-7.29235e-09
1.27516e-08
-9.66882e-09
1.26046e-08
-1.20146e-08
1.24482e-08
-1.43277e-08
1.22829e-08
-1.66065e-08
1.21093e-08
-1.88492e-08
1.19281e-08
-2.10544e-08
1.17399e-08
-2.32206e-08
1.15452e-08
-2.53465e-08
1.13446e-08
-2.74311e-08
1.11387e-08
-2.94733e-08
1.09279e-08
-3.14721e-08
1.07127e-08
-3.34269e-08
1.04937e-08
-3.53367e-08
1.02714e-08
-3.72012e-08
1.00461e-08
-3.90197e-08
9.81837e-09
-4.07918e-08
9.58856e-09
-4.25172e-08
9.3571e-09
-4.41957e-08
9.12437e-09
-4.58271e-08
8.89073e-09
-4.74114e-08
8.65653e-09
-4.89485e-08
8.42211e-09
-5.04384e-08
8.18778e-09
-5.18814e-08
7.95384e-09
-5.32776e-08
7.72056e-09
-5.46272e-08
7.48821e-09
-5.59306e-08
7.25704e-09
-5.7188e-08
7.02729e-09
-5.84e-08
6.79918e-09
-5.95669e-08
6.5729e-09
-6.06892e-08
6.34865e-09
-6.17674e-08
6.12661e-09
-6.28022e-08
5.90693e-09
-6.3794e-08
5.68978e-09
-6.47435e-08
5.47529e-09
-6.56513e-08
5.26358e-09
-6.65181e-08
5.05478e-09
-6.73447e-08
4.84898e-09
-6.81315e-08
4.64629e-09
-6.88795e-08
4.44678e-09
-6.95893e-08
4.25053e-09
-7.02617e-08
4.05762e-09
-7.08974e-08
3.86809e-09
-7.14972e-08
3.68199e-09
-7.20619e-08
3.49937e-09
-7.25923e-08
3.32027e-09
-7.3089e-08
3.1447e-09
-7.3553e-08
2.9727e-09
-7.39849e-08
2.80426e-09
-7.43856e-08
2.63942e-09
-7.47558e-08
2.47816e-09
-7.50964e-08
2.32048e-09
-7.5408e-08
2.16638e-09
-7.56916e-08
2.01585e-09
-7.59477e-08
1.86888e-09
-7.61772e-08
1.72543e-09
-7.63809e-08
1.5855e-09
-7.65594e-08
1.44905e-09
-7.67135e-08
1.31606e-09
-7.68439e-08
1.18649e-09
-7.69513e-08
1.0603e-09
-7.70365e-08
9.37469e-10
-7.71001e-08
8.17947e-10
-7.71428e-08
7.01696e-10
-7.71652e-08
5.88671e-10
-7.71681e-08
4.78829e-10
-7.71521e-08
3.72122e-10
-7.71178e-08
2.68504e-10
-7.70658e-08
1.67927e-10
-7.69967e-08
7.03391e-11
-7.69112e-08
-2.43083e-11
-7.68098e-08
-1.16067e-10
-7.6693e-08
-2.04988e-10
-7.65615e-08
-2.91123e-10
-7.64159e-08
-3.74526e-10
-7.62565e-08
-4.55249e-10
-7.6084e-08
-5.33345e-10
-6.08866e-10
-7.58988e-08
-2.98007e-09
1.59947e-08
-5.93068e-09
1.58391e-08
-8.84884e-09
1.56698e-08
-1.17317e-08
1.54875e-08
-1.45767e-08
1.52931e-08
-1.73812e-08
1.50874e-08
-2.01431e-08
1.48712e-08
-2.28602e-08
1.46452e-08
-2.55305e-08
1.44102e-08
-2.81522e-08
1.4167e-08
-3.07238e-08
1.39162e-08
-3.32437e-08
1.36586e-08
-3.57107e-08
1.33948e-08
-3.81235e-08
1.31255e-08
-4.04811e-08
1.28514e-08
-4.27827e-08
1.2573e-08
-4.50275e-08
1.22909e-08
-4.72148e-08
1.20056e-08
-4.93441e-08
1.17179e-08
-5.1415e-08
1.1428e-08
-5.34272e-08
1.11366e-08
-5.53806e-08
1.08441e-08
-5.72751e-08
1.0551e-08
-5.91106e-08
1.02577e-08
-6.08874e-08
9.9645e-09
-6.26054e-08
9.67192e-09
-6.42652e-08
9.38026e-09
-6.58668e-08
9.08988e-09
-6.74109e-08
8.80109e-09
-6.88978e-08
8.51419e-09
-7.0328e-08
8.22945e-09
-7.17023e-08
7.94714e-09
-7.30212e-08
7.66751e-09
-7.42853e-08
7.39077e-09
-7.54955e-08
7.11713e-09
-7.66525e-08
6.84679e-09
-7.77572e-08
6.57992e-09
-7.88103e-08
6.31668e-09
-7.98127e-08
6.05721e-09
-8.07654e-08
5.80165e-09
-8.16692e-08
5.5501e-09
-8.25251e-08
5.30269e-09
-8.33341e-08
5.0595e-09
-8.40971e-08
4.8206e-09
-8.4815e-08
4.58608e-09
-8.5489e-08
4.35598e-09
-8.612e-08
4.13037e-09
-8.6709e-08
3.90927e-09
-8.7257e-08
3.69272e-09
-8.77651e-08
3.48074e-09
-8.82342e-08
3.27334e-09
-8.86653e-08
3.07053e-09
-8.90594e-08
2.87232e-09
-8.94176e-08
2.67869e-09
-8.97409e-08
2.48963e-09
-9.00302e-08
2.30512e-09
-9.02864e-08
2.12514e-09
-9.05107e-08
1.94966e-09
-9.07038e-08
1.77865e-09
-9.08668e-08
1.61207e-09
-9.10006e-08
1.44987e-09
-9.11062e-08
1.29201e-09
-9.11843e-08
1.13844e-09
-9.1236e-08
9.89122e-10
-9.1262e-08
8.43985e-10
-9.12633e-08
7.0298e-10
-9.12406e-08
5.66047e-10
-9.11949e-08
4.33125e-10
-9.1127e-08
3.04152e-10
-9.10375e-08
1.79064e-10
-9.09274e-08
5.77961e-11
-9.07973e-08
-5.97178e-11
-9.06481e-08
-1.73545e-10
-9.04804e-08
-2.83754e-10
-9.0295e-08
-3.90412e-10
-9.00925e-08
-4.93589e-10
-8.98737e-08
-5.93355e-10
-8.96392e-08
-6.89778e-10
-8.93896e-08
-7.82928e-10
-8.72875e-10
-8.91256e-08
-3.64875e-09
1.96434e-08
-7.2612e-09
1.94516e-08
-1.08334e-08
1.9242e-08
-1.43617e-08
1.90158e-08
-1.78427e-08
1.87741e-08
-2.1273e-08
1.85178e-08
-2.46499e-08
1.8248e-08
-2.79704e-08
1.79657e-08
-3.1232e-08
1.76719e-08
-3.44324e-08
1.73674e-08
-3.75696e-08
1.70534e-08
-4.06416e-08
1.67306e-08
-4.36466e-08
1.63999e-08
-4.65832e-08
1.60622e-08
-4.94501e-08
1.57183e-08
-5.22461e-08
1.53689e-08
-5.49702e-08
1.5015e-08
-5.76216e-08
1.46571e-08
-6.01997e-08
1.42959e-08
-6.27039e-08
1.39323e-08
-6.5134e-08
1.35667e-08
-6.74897e-08
1.31998e-08
-6.97709e-08
1.28322e-08
-7.19777e-08
1.24644e-08
-7.41102e-08
1.2097e-08
-7.61687e-08
1.17304e-08
-7.81536e-08
1.13652e-08
-8.00654e-08
1.10016e-08
-8.19045e-08
1.06402e-08
-8.36717e-08
1.02814e-08
-8.53677e-08
9.92544e-09
-8.69933e-08
9.57271e-09
-8.85493e-08
9.22352e-09
-9.00367e-08
8.87816e-09
-9.14564e-08
8.53688e-09
-9.28095e-08
8.19993e-09
-9.40971e-08
7.86753e-09
-9.53203e-08
7.53988e-09
-9.64803e-08
7.21716e-09
-9.75782e-08
6.89954e-09
-9.86152e-08
6.58716e-09
-9.95927e-08
6.28015e-09
-1.00512e-07
5.97863e-09
-1.01374e-07
5.68269e-09
-1.0218e-07
5.39241e-09
-1.02932e-07
5.10788e-09
-1.03631e-07
4.82913e-09
-1.04278e-07
4.55622e-09
-1.04874e-07
4.28918e-09
-1.05422e-07
4.02804e-09
-1.05921e-07
3.7728e-09
-1.06374e-07
3.52346e-09
-1.06782e-07
3.28003e-09
-1.07146e-07
3.04248e-09
-1.07467e-07
2.81079e-09
-1.07746e-07
2.58493e-09
-1.07986e-07
2.36486e-09
-1.08187e-07
2.15055e-09
-1.0835e-07
1.94193e-09
-1.08477e-07
1.73897e-09
-1.08569e-07
1.54159e-09
-1.08627e-07
1.34973e-09
-1.08652e-07
1.16333e-09
-1.08645e-07
9.82317e-10
-1.08607e-07
8.06612e-10
-1.08541e-07
6.3614e-10
-1.08445e-07
4.70819e-10
-1.08323e-07
3.10568e-10
-1.08174e-07
1.55302e-10
-1.08e-07
4.93346e-12
-1.07801e-07
-1.40624e-10
-1.0758e-07
-2.8146e-10
-1.07336e-07
-4.17665e-10
-1.0707e-07
-5.49329e-10
-1.06784e-07
-6.76544e-10
-1.06478e-07
-7.99402e-10
-1.06153e-07
-9.17995e-10
-1.05811e-07
-1.03241e-09
-1.05451e-07
-1.14275e-09
-1.2491e-09
-1.05075e-07
-4.50474e-09
2.41482e-08
-8.96431e-09
2.39111e-08
-1.33735e-08
2.36512e-08
-1.77276e-08
2.33699e-08
-2.20219e-08
2.30684e-08
-2.62523e-08
2.27482e-08
-3.04147e-08
2.24105e-08
-3.45057e-08
2.20566e-08
-3.85217e-08
2.16879e-08
-4.24599e-08
2.13056e-08
-4.63174e-08
2.09108e-08
-5.00916e-08
2.05048e-08
-5.37805e-08
2.00887e-08
-5.7382e-08
1.96636e-08
-6.08943e-08
1.92306e-08
-6.4316e-08
1.87907e-08
-6.76459e-08
1.83448e-08
-7.08828e-08
1.7894e-08
-7.40261e-08
1.74392e-08
-7.70749e-08
1.69811e-08
-8.0029e-08
1.65208e-08
-8.28881e-08
1.60589e-08
-8.5652e-08
1.55962e-08
-8.8321e-08
1.51334e-08
-9.08952e-08
1.46712e-08
-9.3375e-08
1.42103e-08
-9.5761e-08
1.37512e-08
-9.80538e-08
1.32945e-08
-1.00254e-07
1.28407e-08
-1.02363e-07
1.23903e-08
-1.04382e-07
1.19439e-08
-1.06311e-07
1.15017e-08
-1.08152e-07
1.10643e-08
-1.09905e-07
1.0632e-08
-1.11574e-07
1.02051e-08
-1.13157e-07
9.78386e-09
-1.14659e-07
9.36867e-09
-1.16078e-07
8.95974e-09
-1.17419e-07
8.55729e-09
-1.18681e-07
8.16154e-09
-1.19866e-07
7.77267e-09
-1.20977e-07
7.39083e-09
-1.22014e-07
7.01617e-09
-1.2298e-07
6.64879e-09
-1.23877e-07
6.28881e-09
-1.24705e-07
5.93631e-09
-1.25467e-07
5.59134e-09
-1.26165e-07
5.25396e-09
-1.268e-07
4.9242e-09
-1.27374e-07
4.60208e-09
-1.27889e-07
4.28761e-09
-1.28346e-07
3.98078e-09
-1.28748e-07
3.68157e-09
-1.29095e-07
3.38996e-09
-1.29391e-07
3.10591e-09
-1.29635e-07
2.82936e-09
-1.2983e-07
2.56027e-09
-1.29978e-07
2.29856e-09
-1.30081e-07
2.04417e-09
-1.30139e-07
1.79702e-09
-1.30154e-07
1.55702e-09
-1.30128e-07
1.32408e-09
-1.30063e-07
1.09811e-09
-1.2996e-07
8.79008e-10
-1.2982e-07
6.66669e-10
-1.29645e-07
4.60986e-10
-1.29436e-07
2.61849e-10
-1.29194e-07
6.91457e-11
-1.28922e-07
-1.17241e-10
-1.2862e-07
-2.97427e-10
-1.28289e-07
-4.71532e-10
-1.2793e-07
-6.39678e-10
-1.27546e-07
-8.01984e-10
-1.27137e-07
-9.58574e-10
-1.26704e-07
-1.10957e-09
-1.26248e-07
-1.2551e-09
-1.25771e-07
-1.39527e-09
-1.25273e-07
-1.53023e-09
-1.24756e-07
-1.66008e-09
-1.78495e-09
-1.2422e-07
-5.60652e-09
2.97547e-08
-1.11564e-08
2.9461e-08
-1.66426e-08
2.91375e-08
-2.20589e-08
2.87861e-08
-2.7399e-08
2.84086e-08
-3.26575e-08
2.80066e-08
-3.78291e-08
2.7582e-08
-4.29089e-08
2.71365e-08
-4.78925e-08
2.66716e-08
-5.27759e-08
2.6189e-08
-5.75554e-08
2.56903e-08
-6.22277e-08
2.51771e-08
-6.67898e-08
2.46508e-08
-7.12392e-08
2.4113e-08
-7.55735e-08
2.35649e-08
-7.97908e-08
2.3008e-08
-8.38895e-08
2.24435e-08
-8.78682e-08
2.18727e-08
-9.17259e-08
2.12969e-08
-9.54618e-08
2.0717e-08
-9.90753e-08
2.01343e-08
-1.02566e-07
1.95498e-08
-1.05935e-07
1.89644e-08
-1.0918e-07
1.83792e-08
-1.12304e-07
1.77949e-08
-1.15306e-07
1.72124e-08
-1.18187e-07
1.66325e-08
-1.20949e-07
1.6056e-08
-1.23592e-07
1.54834e-08
-1.26117e-07
1.49156e-08
-1.28526e-07
1.4353e-08
-1.30821e-07
1.37962e-08
-1.33002e-07
1.32458e-08
-1.35072e-07
1.27021e-08
-1.37033e-07
1.21657e-08
-1.38886e-07
1.1637e-08
-1.40633e-07
1.11162e-08
-1.42277e-07
1.06037e-08
-1.4382e-07
1.00998e-08
-1.45263e-07
9.60479e-09
-1.46609e-07
9.11886e-09
-1.47861e-07
8.6422e-09
-1.4902e-07
8.175e-09
-1.50088e-07
7.71739e-09
-1.51069e-07
7.26949e-09
-1.51964e-07
6.8314e-09
-1.52776e-07
6.40319e-09
-1.53507e-07
5.98492e-09
-1.54159e-07
5.5766e-09
-1.54735e-07
5.17827e-09
-1.55238e-07
4.7899e-09
-1.55668e-07
4.41149e-09
-1.5603e-07
4.043e-09
-1.56324e-07
3.68437e-09
-1.56554e-07
3.33556e-09
-1.56721e-07
2.99647e-09
-1.56828e-07
2.66703e-09
-1.56876e-07
2.34714e-09
-1.56869e-07
2.0367e-09
-1.56807e-07
1.73559e-09
-1.56694e-07
1.44369e-09
-1.56531e-07
1.16088e-09
-1.5632e-07
8.87013e-10
-1.56063e-07
6.21959e-10
-1.55762e-07
3.65569e-10
-1.55418e-07
1.17696e-10
-1.55035e-07
-1.21813e-10
-1.54612e-07
-3.53116e-10
-1.54153e-07
-5.76369e-10
-1.53659e-07
-7.91735e-10
-1.53131e-07
-9.99376e-10
-1.52571e-07
-1.19946e-09
-1.51981e-07
-1.39214e-09
-1.51362e-07
-1.57759e-09
-1.50716e-07
-1.75598e-09
-1.50043e-07
-1.92747e-09
-1.49346e-07
-2.09223e-09
-1.48626e-07
-2.25042e-09
-1.47884e-07
-2.40221e-09
-2.54775e-09
-1.47121e-07
-7.03414e-09
3.67888e-08
-1.39965e-08
3.64233e-08
-2.08779e-08
3.60189e-08
-2.76695e-08
3.55778e-08
-3.43634e-08
3.51025e-08
-4.09519e-08
3.45952e-08
-4.74281e-08
3.40582e-08
-5.37854e-08
3.34938e-08
-6.00179e-08
3.29041e-08
-6.61202e-08
3.22913e-08
-7.20874e-08
3.16575e-08
-7.7915e-08
3.10048e-08
-8.35992e-08
3.0335e-08
-8.91364e-08
2.96502e-08
-9.45237e-08
2.89522e-08
-9.97584e-08
2.82427e-08
-1.04838e-07
2.75235e-08
-1.09762e-07
2.67963e-08
-1.14528e-07
2.60626e-08
-1.19135e-07
2.5324e-08
-1.23582e-07
2.45818e-08
-1.2787e-07
2.38375e-08
-1.31998e-07
2.30924e-08
-1.35966e-07
2.23476e-08
-1.39776e-07
2.16045e-08
-1.43427e-07
2.08639e-08
-1.46922e-07
2.01271e-08
-1.50261e-07
1.93949e-08
-1.53446e-07
1.86682e-08
-1.56478e-07
1.7948e-08
-1.5936e-07
1.72349e-08
-1.62094e-07
1.65298e-08
-1.64681e-07
1.58332e-08
-1.67125e-07
1.51458e-08
-1.69427e-07
1.44681e-08
-1.71591e-07
1.38007e-08
-1.73619e-07
1.3144e-08
-1.75513e-07
1.24984e-08
-1.77278e-07
1.18643e-08
-1.78915e-07
1.1242e-08
-1.80428e-07
1.06318e-08
-1.8182e-07
1.00339e-08
-1.83093e-07
9.4486e-09
-1.84252e-07
8.87601e-09
-1.85299e-07
8.31628e-09
-1.86237e-07
7.76953e-09
-1.87069e-07
7.23582e-09
-1.878e-07
6.71521e-09
-1.88431e-07
6.20773e-09
-1.88966e-07
5.71338e-09
-1.89408e-07
5.23213e-09
-1.8976e-07
4.76394e-09
-1.90026e-07
4.30875e-09
-1.90208e-07
3.86648e-09
-1.9031e-07
3.43703e-09
-1.90334e-07
3.02028e-09
-1.90283e-07
2.61611e-09
-1.9016e-07
2.22438e-09
-1.89968e-07
1.84493e-09
-1.8971e-07
1.47761e-09
-1.89389e-07
1.12223e-09
-1.89006e-07
7.78609e-10
-1.88566e-07
4.46567e-10
-1.8807e-07
1.25902e-10
-1.87521e-07
-1.83588e-10
-1.86921e-07
-4.82111e-10
-1.86273e-07
-7.69881e-10
-1.85579e-07
-1.04711e-09
-1.84841e-07
-1.31403e-09
-1.84062e-07
-1.57085e-09
-1.83244e-07
-1.81779e-09
-1.82388e-07
-2.05509e-09
-1.81497e-07
-2.28297e-09
-1.80573e-07
-2.50165e-09
-1.79618e-07
-2.71136e-09
-1.78633e-07
-2.91232e-09
-1.7762e-07
-3.10477e-09
-1.76582e-07
-3.28892e-09
-1.75519e-07
-3.46499e-09
-3.63321e-09
-1.74434e-07
-8.89783e-09
4.56867e-08
-1.7704e-08
4.52295e-08
-2.6406e-08
4.47208e-08
-3.4992e-08
4.41638e-08
-4.34511e-08
4.35616e-08
-5.1773e-08
4.29171e-08
-5.99483e-08
4.22334e-08
-6.79681e-08
4.15136e-08
-7.58245e-08
4.07604e-08
-8.351e-08
3.99769e-08
-9.10182e-08
3.91656e-08
-9.83429e-08
3.83295e-08
-1.05479e-07
3.74711e-08
-1.12422e-07
3.65929e-08
-1.19167e-07
3.56975e-08
-1.25712e-07
3.47873e-08
-1.32053e-07
3.38645e-08
-1.38188e-07
3.29313e-08
-1.44115e-07
3.19898e-08
-1.49833e-07
3.10421e-08
-1.55341e-07
3.00901e-08
-1.60639e-07
2.91356e-08
-1.65727e-07
2.81804e-08
-1.70606e-07
2.7226e-08
-1.75275e-07
2.62741e-08
-1.79737e-07
2.5326e-08
-1.83994e-07
2.43832e-08
-1.88046e-07
2.3447e-08
-1.91896e-07
2.25184e-08
-1.95547e-07
2.15987e-08
-1.99e-07
2.06889e-08
-2.02261e-07
1.97898e-08
-2.0533e-07
1.89025e-08
-2.08212e-07
1.80276e-08
-2.1091e-07
1.7166e-08
-2.13427e-07
1.63182e-08
-2.15768e-07
1.5485e-08
-2.17936e-07
1.46667e-08
-2.19936e-07
1.38638e-08
-2.21771e-07
1.30769e-08
-2.23445e-07
1.23062e-08
-2.24963e-07
1.1552e-08
-2.2633e-07
1.08147e-08
-2.27548e-07
1.00943e-08
-2.28623e-07
9.39113e-09
-2.29558e-07
8.70524e-09
-2.30359e-07
8.03672e-09
-2.3103e-07
7.38563e-09
-2.31574e-07
6.75197e-09
-2.31996e-07
6.13572e-09
-2.32301e-07
5.53683e-09
-2.32492e-07
4.95522e-09
-2.32574e-07
4.39078e-09
-2.32551e-07
3.84339e-09
-2.32427e-07
3.31289e-09
-2.32206e-07
2.7991e-09
-2.31892e-07
2.30185e-09
-2.31488e-07
1.82092e-09
-2.30999e-07