/*--------------------------------*- C++ -*----------------------------------*\
  =========                 |
  \\      /  F ield         | OpenFOAM: The Open Source CFD Toolbox
   \\    /   O peration     | Website:  https://openfoam.org
    \\  /    A nd           | Version:  8
     \\/     M anipulation  |
\*---------------------------------------------------------------------------*/
FoamFile
{
    version     2.0;
    format      ascii;
    class       surfaceScalarField;
    location    "3000";
    object      phib;
}
// * * * * * * * * * * * * * * * * * * * * * * * * * * * * * * * * * * * * * //

dimensions      [0 3 -1 0 0 0 0];

internalField   nonuniform List<scalar> 
25360
(
-1.65046e-20
-4.26904e-14
-3.28514e-20
-4.23174e-14
-4.90288e-20
-4.19478e-14
-6.50257e-20
-4.15813e-14
-8.08321e-20
-4.12181e-14
-9.64382e-20
-4.0858e-14
-1.11835e-19
-4.05011e-14
-1.27015e-19
-4.01473e-14
-1.41969e-19
-3.97966e-14
-1.56692e-19
-3.94489e-14
-1.71175e-19
-3.91043e-14
-1.85415e-19
-3.87627e-14
-1.99404e-19
-3.84241e-14
-2.13138e-19
-3.80884e-14
-2.26614e-19
-3.77557e-14
-2.39827e-19
-3.74259e-14
-2.52773e-19
-3.7099e-14
-2.65451e-19
-3.67749e-14
-2.77857e-19
-3.64536e-14
-2.89989e-19
-3.61352e-14
-3.01847e-19
-3.58195e-14
-3.13428e-19
-3.55066e-14
-3.24732e-19
-3.51964e-14
-3.35758e-19
-3.4889e-14
-3.46506e-19
-3.45842e-14
-3.56977e-19
-3.42821e-14
-3.6717e-19
-3.39826e-14
-3.77087e-19
-3.36858e-14
-3.86728e-19
-3.33915e-14
-3.96095e-19
-3.30998e-14
-4.05189e-19
-3.28106e-14
-4.14011e-19
-3.2524e-14
-4.22565e-19
-3.22399e-14
-4.30851e-19
-3.19583e-14
-4.38873e-19
-3.16791e-14
-4.46632e-19
-3.14024e-14
-4.54132e-19
-3.1128e-14
-4.61374e-19
-3.08561e-14
-4.68363e-19
-3.05866e-14
-4.751e-19
-3.03194e-14
-4.8159e-19
-3.00545e-14
-4.87835e-19
-2.9792e-14
-4.9384e-19
-2.95317e-14
-4.99606e-19
-2.92737e-14
-5.05138e-19
-2.9018e-14
-5.1044e-19
-2.87645e-14
-5.15514e-19
-2.85132e-14
-5.20365e-19
-2.82642e-14
-5.24997e-19
-2.80173e-14
-5.29413e-19
-2.77725e-14
-5.33617e-19
-2.75299e-14
-5.37613e-19
-2.72894e-14
-5.41405e-19
-2.7051e-14
-5.44996e-19
-2.68147e-14
-5.48391e-19
-2.65805e-14
-5.51594e-19
-2.63483e-14
-5.54608e-19
-2.61181e-14
-5.57437e-19
-2.58899e-14
-5.60085e-19
-2.56638e-14
-5.62557e-19
-2.54396e-14
-5.64855e-19
-2.52174e-14
-5.66984e-19
-2.49971e-14
-5.68947e-19
-2.47787e-14
-5.70749e-19
-2.45622e-14
-5.72393e-19
-2.43477e-14
-5.73882e-19
-2.4135e-14
-5.75221e-19
-2.39242e-14
-5.76413e-19
-2.37152e-14
-5.77462e-19
-2.3508e-14
-5.78371e-19
-2.33026e-14
-5.79144e-19
-2.30991e-14
-5.79785e-19
-2.28973e-14
-5.80296e-19
-2.26973e-14
-5.80681e-19
-2.2499e-14
-5.80944e-19
-2.23024e-14
-5.81088e-19
-2.21076e-14
-5.81115e-19
-2.19145e-14
-5.81031e-19
-2.17231e-14
-5.80836e-19
-2.15333e-14
-2.13452e-14
-5.8048e-19
-1.70773e-20
-4.26903e-14
-3.39912e-20
-4.23174e-14
-5.07295e-20
-4.19477e-14
-6.72808e-20
-4.15813e-14
-8.36343e-20
-4.12181e-14
-9.978e-20
-4.0858e-14
-1.15709e-19
-4.05011e-14
-1.31411e-19
-4.01473e-14
-1.4688e-19
-3.97966e-14
-1.62108e-19
-3.94489e-14
-1.77088e-19
-3.91043e-14
-1.91814e-19
-3.87627e-14
-2.0628e-19
-3.84241e-14
-2.20481e-19
-3.80884e-14
-2.34413e-19
-3.77557e-14
-2.48072e-19
-3.74259e-14
-2.61454e-19
-3.70989e-14
-2.74557e-19
-3.67749e-14
-2.87377e-19
-3.64536e-14
-2.99913e-19
-3.61352e-14
-3.12163e-19
-3.58195e-14
-3.24126e-19
-3.55066e-14
-3.35801e-19
-3.51964e-14
-3.47186e-19
-3.4889e-14
-3.58284e-19
-3.45842e-14
-3.69092e-19
-3.42821e-14
-3.79612e-19
-3.39826e-14
-3.89845e-19
-3.36857e-14
-3.99792e-19
-3.33915e-14
-4.09454e-19
-3.30998e-14
-4.18832e-19
-3.28106e-14
-4.27928e-19
-3.2524e-14
-4.36745e-19
-3.22399e-14
-4.45285e-19
-3.19583e-14
-4.5355e-19
-3.16791e-14
-4.61542e-19
-3.14023e-14
-4.69265e-19
-3.1128e-14
-4.76721e-19
-3.08561e-14
-4.83914e-19
-3.05866e-14
-4.90846e-19
-3.03194e-14
-4.97522e-19
-3.00545e-14
-5.03944e-19
-2.9792e-14
-5.10115e-19
-2.95317e-14
-5.16041e-19
-2.92737e-14
-5.21723e-19
-2.9018e-14
-5.27166e-19
-2.87645e-14
-5.32375e-19
-2.85132e-14
-5.37352e-19
-2.82642e-14
-5.42101e-19
-2.80173e-14
-5.46628e-19
-2.77725e-14
-5.50935e-19
-2.75299e-14
-5.55026e-19
-2.72894e-14
-5.58906e-19
-2.7051e-14
-5.62579e-19
-2.68147e-14
-5.66049e-19
-2.65805e-14
-5.6932e-19
-2.63483e-14
-5.72395e-19
-2.61181e-14
-5.7528e-19
-2.58899e-14
-5.77978e-19
-2.56638e-14
-5.80492e-19
-2.54396e-14
-5.82828e-19
-2.52174e-14
-5.8499e-19
-2.49971e-14
-5.8698e-19
-2.47787e-14
-5.88803e-19
-2.45622e-14
-5.90463e-19
-2.43477e-14
-5.91965e-19
-2.4135e-14
-5.9331e-19
-2.39242e-14
-5.94505e-19
-2.37152e-14
-5.95552e-19
-2.3508e-14
-5.96454e-19
-2.33026e-14
-5.97217e-19
-2.30991e-14
-5.97842e-19
-2.28973e-14
-5.98335e-19
-2.26973e-14
-5.98698e-19
-2.2499e-14
-5.98935e-19
-2.23024e-14
-5.99049e-19
-2.21076e-14
-5.99045e-19
-2.19145e-14
-5.98924e-19
-2.17231e-14
-5.9869e-19
-2.15333e-14
-2.13452e-14
-5.98348e-19
-1.82534e-20
-4.26903e-14
-3.63318e-20
-4.23174e-14
-5.4222e-20
-4.19477e-14
-7.19114e-20
-4.15813e-14
-8.93884e-20
-4.12181e-14
-1.06642e-19
-4.0858e-14
-1.23662e-19
-4.05011e-14
-1.40439e-19
-4.01473e-14
-1.56964e-19
-3.97966e-14
-1.7323e-19
-3.94489e-14
-1.89228e-19
-3.91043e-14
-2.04952e-19
-3.87627e-14
-2.20396e-19
-3.84241e-14
-2.35555e-19
-3.80884e-14
-2.50423e-19
-3.77557e-14
-2.64997e-19
-3.74259e-14
-2.79272e-19
-3.70989e-14
-2.93246e-19
-3.67749e-14
-3.06915e-19
-3.64536e-14
-3.20278e-19
-3.61352e-14
-3.33332e-19
-3.58195e-14
-3.46076e-19
-3.55066e-14
-3.58509e-19
-3.51964e-14
-3.70632e-19
-3.4889e-14
-3.82443e-19
-3.45842e-14
-3.93943e-19
-3.42821e-14
-4.05132e-19
-3.39826e-14
-4.16011e-19
-3.36857e-14
-4.26582e-19
-3.33915e-14
-4.36846e-19
-3.30998e-14
-4.46805e-19
-3.28106e-14
-4.56461e-19
-3.2524e-14
-4.65816e-19
-3.22399e-14
-4.74872e-19
-3.19582e-14
-4.83632e-19
-3.16791e-14
-4.921e-19
-3.14023e-14
-5.00278e-19
-3.1128e-14
-5.08169e-19
-3.08561e-14
-5.15777e-19
-3.05865e-14
-5.23105e-19
-3.03194e-14
-5.30157e-19
-3.00545e-14
-5.36938e-19
-2.9792e-14
-5.43449e-19
-2.95317e-14
-5.49696e-19
-2.92737e-14
-5.55683e-19
-2.9018e-14
-5.61414e-19
-2.87645e-14
-5.66893e-19
-2.85132e-14
-5.72124e-19
-2.82642e-14
-5.77111e-19
-2.80172e-14
-5.81859e-19
-2.77725e-14
-5.86373e-19
-2.75299e-14
-5.90656e-19
-2.72894e-14
-5.94713e-19
-2.7051e-14
-5.98549e-19
-2.68147e-14
-6.02168e-19
-2.65805e-14
-6.05574e-19
-2.63483e-14
-6.08772e-19
-2.61181e-14
-6.11766e-19
-2.58899e-14
-6.14561e-19
-2.56638e-14
-6.17161e-19
-2.54396e-14
-6.1957e-19
-2.52174e-14
-6.21793e-19
-2.49971e-14
-6.23835e-19
-2.47787e-14
-6.25698e-19
-2.45622e-14
-6.27388e-19
-2.43477e-14
-6.28909e-19
-2.4135e-14
-6.30265e-19
-2.39242e-14
-6.31461e-19
-2.37152e-14
-6.32499e-19
-2.3508e-14
-6.33385e-19
-2.33026e-14
-6.34121e-19
-2.30991e-14
-6.34713e-19
-2.28973e-14
-6.35164e-19
-2.26973e-14
-6.35478e-19
-2.2499e-14
-6.35658e-19
-2.23024e-14
-6.35709e-19
-2.21076e-14
-6.35634e-19
-2.19145e-14
-6.35436e-19
-2.17231e-14
-6.35119e-19
-2.15333e-14
-2.13452e-14
-6.34687e-19
-2.00843e-20
-4.26903e-14
-3.99756e-20
-4.23174e-14
-5.96589e-20
-4.19477e-14
-7.912e-20
-4.15813e-14
-9.83455e-20
-4.1218e-14
-1.17323e-19
-4.0858e-14
-1.36042e-19
-4.0501e-14
-1.5449e-19
-4.01472e-14
-1.72658e-19
-3.97965e-14
-1.90537e-19
-3.94489e-14
-2.08118e-19
-3.91043e-14
-2.25395e-19
-3.87627e-14
-2.42359e-19
-3.84241e-14
-2.59006e-19
-3.80884e-14
-2.75328e-19
-3.77557e-14
-2.91323e-19
-3.74259e-14
-3.06984e-19
-3.70989e-14
-3.2231e-19
-3.67748e-14
-3.37296e-19
-3.64536e-14
-3.5194e-19
-3.61351e-14
-3.6624e-19
-3.58195e-14
-3.80195e-19
-3.55066e-14
-3.93804e-19
-3.51964e-14
-4.07066e-19
-3.48889e-14
-4.19981e-19
-3.45842e-14
-4.3255e-19
-3.42821e-14
-4.44772e-19
-3.39826e-14
-4.56651e-19
-3.36857e-14
-4.68185e-19
-3.33915e-14
-4.79378e-19
-3.30998e-14
-4.90232e-19
-3.28106e-14
-5.00749e-19
-3.2524e-14
-5.10931e-19
-3.22399e-14
-5.20781e-19
-3.19582e-14
-5.30303e-19
-3.16791e-14
-5.395e-19
-3.14023e-14
-5.48375e-19
-3.1128e-14
-5.56933e-19
-3.08561e-14
-5.65176e-19
-3.05865e-14
-5.7311e-19
-3.03193e-14
-5.80737e-19
-3.00545e-14
-5.88063e-19
-2.97919e-14
-5.95092e-19
-2.95317e-14
-6.01829e-19
-2.92737e-14
-6.08278e-19
-2.9018e-14
-6.14444e-19
-2.87645e-14
-6.20331e-19
-2.85132e-14
-6.25945e-19
-2.82641e-14
-6.3129e-19
-2.80172e-14
-6.36372e-19
-2.77725e-14
-6.41195e-19
-2.75299e-14
-6.45764e-19
-2.72894e-14
-6.50084e-19
-2.7051e-14
-6.54161e-19
-2.68147e-14
-6.57999e-19
-2.65805e-14
-6.61604e-19
-2.63483e-14
-6.6498e-19
-2.61181e-14
-6.68133e-19
-2.58899e-14
-6.71066e-19
-2.56638e-14
-6.73787e-19
-2.54396e-14
-6.76298e-19
-2.52174e-14
-6.78606e-19
-2.49971e-14
-6.80715e-19
-2.47787e-14
-6.82629e-19
-2.45622e-14
-6.84354e-19
-2.43477e-14
-6.85895e-19
-2.4135e-14
-6.87256e-19
-2.39241e-14
-6.88441e-19
-2.37152e-14
-6.89455e-19
-2.3508e-14
-6.90303e-19
-2.33026e-14
-6.9099e-19
-2.30991e-14
-6.91519e-19
-2.28973e-14
-6.91894e-19
-2.26973e-14
-6.92121e-19
-2.2499e-14
-6.92204e-19
-2.23024e-14
-6.92145e-19
-2.21076e-14
-6.91951e-19
-2.19145e-14
-6.91623e-19
-2.17231e-14
-6.91167e-19
-2.15333e-14
-2.13452e-14
-6.90587e-19
-2.26555e-20
-4.26903e-14
-4.50927e-20
-4.23174e-14
-6.72938e-20
-4.19477e-14
-8.92424e-20
-4.15813e-14
-1.10923e-19
-4.1218e-14
-1.32321e-19
-4.08579e-14
-1.53422e-19
-4.0501e-14
-1.74215e-19
-4.01472e-14
-1.94688e-19
-3.97965e-14
-2.1483e-19
-3.94489e-14
-2.34631e-19
-3.91043e-14
-2.54083e-19
-3.87627e-14
-2.73178e-19
-3.8424e-14
-2.91908e-19
-3.80884e-14
-3.10266e-19
-3.77557e-14
-3.28249e-19
-3.74258e-14
-3.45849e-19
-3.70989e-14
-3.63064e-19
-3.67748e-14
-3.7989e-19
-3.64536e-14
-3.96324e-19
-3.61351e-14
-4.12363e-19
-3.58195e-14
-4.28007e-19
-3.55066e-14
-4.43254e-19
-3.51964e-14
-4.58103e-19
-3.48889e-14
-4.72555e-19
-3.45841e-14
-4.8661e-19
-3.4282e-14
-5.00269e-19
-3.39826e-14
-5.13533e-19
-3.36857e-14
-5.26405e-19
-3.33914e-14
-5.38885e-19
-3.30997e-14
-5.50978e-19
-3.28106e-14
-5.62685e-19
-3.2524e-14
-5.7401e-19
-3.22399e-14
-5.84956e-19
-3.19582e-14
-5.95527e-19
-3.16791e-14
-6.05728e-19
-3.14023e-14
-6.15561e-19
-3.1128e-14
-6.25033e-19
-3.08561e-14
-6.34146e-19
-3.05865e-14
-6.42907e-19
-3.03193e-14
-6.5132e-19
-3.00545e-14
-6.5939e-19
-2.97919e-14
-6.67123e-19
-2.95317e-14
-6.74523e-19
-2.92737e-14
-6.81597e-19
-2.9018e-14
-6.88349e-19
-2.87645e-14
-6.94787e-19
-2.85132e-14
-7.00914e-19
-2.82641e-14
-7.06737e-19
-2.80172e-14
-7.12263e-19
-2.77725e-14
-7.17495e-19
-2.75299e-14
-7.22442e-19
-2.72894e-14
-7.27107e-19
-2.7051e-14
-7.31498e-19
-2.68147e-14
-7.3562e-19
-2.65805e-14
-7.3948e-19
-2.63483e-14
-7.43081e-19
-2.61181e-14
-7.46432e-19
-2.58899e-14
-7.49537e-19
-2.56638e-14
-7.52402e-19
-2.54396e-14
-7.55034e-19
-2.52173e-14
-7.57437e-19
-2.49971e-14
-7.59617e-19
-2.47787e-14
-7.6158e-19
-2.45622e-14
-7.63332e-19
-2.43477e-14
-7.64877e-19
-2.4135e-14
-7.66222e-19
-2.39241e-14
-7.67371e-19
-2.37152e-14
-7.6833e-19
-2.3508e-14
-7.69105e-19
-2.33026e-14
-7.69699e-19
-2.30991e-14
-7.70119e-19
-2.28973e-14
-7.70369e-19
-2.26973e-14
-7.70454e-19
-2.2499e-14
-7.70378e-19
-2.23024e-14
-7.70148e-19
-2.21076e-14
-7.69767e-19
-2.19145e-14
-7.69239e-19
-2.17231e-14
-7.6857e-19
-2.15333e-14
-2.13452e-14
-7.67764e-19
-2.60905e-20
-4.26903e-14
-5.19286e-20
-4.23173e-14
-7.7493e-20
-4.19477e-14
-1.02764e-19
-4.15812e-14
-1.27723e-19
-4.1218e-14
-1.52352e-19
-4.08579e-14
-1.76635e-19
-4.0501e-14
-2.00557e-19
-4.01472e-14
-2.24104e-19
-3.97965e-14
-2.47264e-19
-3.94488e-14
-2.70025e-19
-3.91042e-14
-2.92375e-19
-3.87626e-14
-3.14307e-19
-3.8424e-14
-3.3581e-19
-3.80884e-14
-3.56878e-19
-3.77556e-14
-3.77503e-19
-3.74258e-14
-3.97681e-19
-3.70989e-14
-4.17405e-19
-3.67748e-14
-4.36673e-19
-3.64536e-14
-4.5548e-19
-3.61351e-14
-4.73824e-19
-3.58194e-14
-4.91703e-19
-3.55065e-14
-5.09117e-19
-3.51964e-14
-5.26064e-19
-3.48889e-14
-5.42545e-19
-3.45841e-14
-5.58561e-19
-3.4282e-14
-5.74112e-19
-3.39825e-14
-5.892e-19
-3.36857e-14
-6.03828e-19
-3.33914e-14
-6.17999e-19
-3.30997e-14
-6.31716e-19
-3.28106e-14
-6.44981e-19
-3.2524e-14
-6.578e-19
-3.22398e-14
-6.70176e-19
-3.19582e-14
-6.82114e-19
-3.1679e-14
-6.9362e-19
-3.14023e-14
-7.04697e-19
-3.1128e-14
-7.15352e-19
-3.08561e-14
-7.25591e-19
-3.05865e-14
-7.35418e-19
-3.03193e-14
-7.44841e-19
-3.00545e-14
-7.53865e-19
-2.97919e-14
-7.62497e-19
-2.95317e-14
-7.70744e-19
-2.92737e-14
-7.78612e-19
-2.9018e-14
-7.86107e-19
-2.87645e-14
-7.93237e-19
-2.85132e-14
-8.00009e-19
-2.82641e-14
-8.06429e-19
-2.80172e-14
-8.12505e-19
-2.77725e-14
-8.18243e-19
-2.75299e-14
-8.23651e-19
-2.72894e-14
-8.28736e-19
-2.7051e-14
-8.33504e-19
-2.68147e-14
-8.37963e-19
-2.65804e-14
-8.4212e-19
-2.63483e-14
-8.45982e-19
-2.61181e-14
-8.49556e-19
-2.58899e-14
-8.52848e-19
-2.56638e-14
-8.55866e-19
-2.54396e-14
-8.58617e-19
-2.52173e-14
-8.61107e-19
-2.49971e-14
-8.63342e-19
-2.47787e-14
-8.65331e-19
-2.45622e-14
-8.67078e-19
-2.43477e-14
-8.68591e-19
-2.4135e-14
-8.69877e-19
-2.39241e-14
-8.7094e-19
-2.37152e-14
-8.71788e-19
-2.3508e-14
-8.72427e-19
-2.33026e-14
-8.72863e-19
-2.30991e-14
-8.73101e-19
-2.28973e-14
-8.73148e-19
-2.26973e-14
-8.73009e-19
-2.2499e-14
-8.7269e-19
-2.23024e-14
-8.72196e-19
-2.21076e-14
-8.71534e-19
-2.19145e-14
-8.70707e-19
-2.17231e-14
-8.69723e-19
-2.15333e-14
-2.13452e-14
-8.68584e-19
-3.05602e-20
-4.26902e-14
-6.08234e-20
-4.23173e-14
-9.07636e-20
-4.19476e-14
-1.20356e-19
-4.15812e-14
-1.49578e-19
-4.1218e-14
-1.78409e-19
-4.08579e-14
-2.06827e-19
-4.0501e-14
-2.34816e-19
-4.01472e-14
-2.62357e-19
-3.97965e-14
-2.89435e-19
-3.94488e-14
-3.16036e-19
-3.91042e-14
-3.42146e-19
-3.87626e-14
-3.67755e-19
-3.8424e-14
-3.92852e-19
-3.80883e-14
-4.17427e-19
-3.77556e-14
-4.41472e-19
-3.74258e-14
-4.64981e-19
-3.70989e-14
-4.87947e-19
-3.67748e-14
-5.10365e-19
-3.64535e-14
-5.32233e-19
-3.61351e-14
-5.53546e-19
-3.58194e-14
-5.74302e-19
-3.55065e-14
-5.94501e-19
-3.51964e-14
-6.14141e-19
-3.48889e-14
-6.33224e-19
-3.45841e-14
-6.5175e-19
-3.4282e-14
-6.69721e-19
-3.39825e-14
-6.87139e-19
-3.36857e-14
-7.04007e-19
-3.33914e-14
-7.2033e-19
-3.30997e-14
-7.3611e-19
-3.28106e-14
-7.51352e-19
-3.25239e-14
-7.66062e-19
-3.22398e-14
-7.80245e-19
-3.19582e-14
-7.93906e-19
-3.1679e-14
-8.07052e-19
-3.14023e-14
-8.1969e-19
-3.1128e-14
-8.31826e-19
-3.08561e-14
-8.43468e-19
-3.05865e-14
-8.54622e-19
-3.03193e-14
-8.65296e-19
-3.00545e-14
-8.75499e-19
-2.97919e-14
-8.85238e-19
-2.95317e-14
-8.94521e-19
-2.92737e-14
-9.03356e-19
-2.9018e-14
-9.11753e-19
-2.87645e-14
-9.19718e-19
-2.85132e-14
-9.27262e-19
-2.82641e-14
-9.34392e-19
-2.80172e-14
-9.41116e-19
-2.77725e-14
-9.47445e-19
-2.75299e-14
-9.53386e-19
-2.72894e-14
-9.58949e-19
-2.7051e-14
-9.64141e-19
-2.68147e-14
-9.68971e-19
-2.65804e-14
-9.73449e-19
-2.63482e-14
-9.77583e-19
-2.61181e-14
-9.8138e-19
-2.58899e-14
-9.8485e-19
-2.56638e-14
-9.88002e-19
-2.54396e-14
-9.90843e-19
-2.52173e-14
-9.93381e-19
-2.49971e-14
-9.95625e-19
-2.47787e-14
-9.97583e-19
-2.45622e-14
-9.99263e-19
-2.43477e-14
-1.00067e-18
-2.4135e-14
-1.00182e-18
-2.39241e-14
-1.00271e-18
-2.37152e-14
-1.00336e-18
-2.3508e-14
-1.00376e-18
-2.33026e-14
-1.00393e-18
-2.30991e-14
-1.00388e-18
-2.28973e-14
-1.0036e-18
-2.26973e-14
-1.00312e-18
-2.2499e-14
-1.00243e-18
-2.23024e-14
-1.00154e-18
-2.21076e-14
-1.00046e-18
-2.19145e-14
-9.99197e-19
-2.17231e-14
-9.97752e-19
-2.15333e-14
-2.13452e-14
-9.96134e-19
-3.62964e-20
-4.26902e-14
-7.22383e-20
-4.23173e-14
-1.07793e-19
-4.19476e-14
-1.4293e-19
-4.15812e-14
-1.77621e-19
-4.12179e-14
-2.11839e-19
-4.08579e-14
-2.45558e-19
-4.05009e-14
-2.78756e-19
-4.01471e-14
-3.11412e-19
-3.97964e-14
-3.43505e-19
-3.94488e-14
-3.75019e-19
-3.91042e-14
-4.05937e-19
-3.87626e-14
-4.36244e-19
-3.8424e-14
-4.65928e-19
-3.80883e-14
-4.94977e-19
-3.77556e-14
-5.23381e-19
-3.74258e-14
-5.51132e-19
-3.70988e-14
-5.78222e-19
-3.67748e-14
-6.04645e-19
-3.64535e-14
-6.30397e-19
-3.61351e-14
-6.55474e-19
-3.58194e-14
-6.79873e-19
-3.55065e-14
-7.03594e-19
-3.51963e-14
-7.26636e-19
-3.48889e-14
-7.48999e-19
-3.45841e-14
-7.70686e-19
-3.4282e-14
-7.91698e-19
-3.39825e-14
-8.12039e-19
-3.36857e-14
-8.31712e-19
-3.33914e-14
-8.50722e-19
-3.30997e-14
-8.69075e-19
-3.28106e-14
-8.86777e-19
-3.25239e-14
-9.03834e-19
-3.22398e-14
-9.20253e-19
-3.19582e-14
-9.36041e-19
-3.1679e-14
-9.51207e-19
-3.14023e-14
-9.65759e-19
-3.1128e-14
-9.79705e-19
-3.0856e-14
-9.93055e-19
-3.05865e-14
-1.00582e-18
-3.03193e-14
-1.01801e-18
-3.00544e-14
-1.02962e-18
-2.97919e-14
-1.04069e-18
-2.95317e-14
-1.0512e-18
-2.92737e-14
-1.06118e-18
-2.9018e-14
-1.07063e-18
-2.87645e-14
-1.07957e-18
-2.85132e-14
-1.088e-18
-2.82641e-14
-1.09594e-18
-2.80172e-14
-1.1034e-18
-2.77725e-14
-1.11038e-18
-2.75299e-14
-1.1169e-18
-2.72894e-14
-1.12298e-18
-2.7051e-14
-1.12861e-18
-2.68147e-14
-1.13382e-18
-2.65804e-14
-1.13861e-18
-2.63482e-14
-1.14299e-18
-2.61181e-14
-1.14697e-18
-2.58899e-14
-1.15057e-18
-2.56638e-14
-1.15379e-18
-2.54396e-14
-1.15665e-18
-2.52173e-14
-1.15915e-18
-2.49971e-14
-1.16131e-18
-2.47787e-14
-1.16314e-18
-2.45622e-14
-1.16464e-18
-2.43477e-14
-1.16582e-18
-2.4135e-14
-1.1667e-18
-2.39241e-14
-1.16728e-18
-2.37152e-14
-1.16757e-18
-2.3508e-14
-1.16759e-18
-2.33026e-14
-1.16733e-18
-2.30991e-14
-1.16682e-18
-2.28973e-14
-1.16605e-18
-2.26973e-14
-1.16504e-18
-2.2499e-14
-1.16379e-18
-2.23025e-14
-1.16232e-18
-2.21076e-14
-1.16063e-18
-2.19145e-14
-1.15872e-18
-2.17231e-14
-1.15661e-18
-2.15333e-14
-2.13452e-14
-1.15431e-18
-4.36113e-20
-4.26901e-14
-8.67942e-20
-4.23172e-14
-1.29507e-19
-4.19476e-14
-1.71712e-19
-4.15811e-14
-2.13371e-19
-4.12179e-14
-2.54451e-19
-4.08578e-14
-2.94921e-19
-4.05009e-14
-3.3475e-19
-4.01471e-14
-3.73912e-19
-3.97964e-14
-4.12382e-19
-3.94487e-14
-4.50138e-19
-3.91041e-14
-4.87159e-19
-3.87625e-14
-5.23427e-19
-3.84239e-14
-5.58925e-19
-3.80883e-14
-5.9364e-19
-3.77555e-14
-6.27558e-19
-3.74257e-14
-6.60669e-19
-3.70988e-14
-6.92964e-19
-3.67747e-14
-7.24436e-19
-3.64535e-14
-7.55078e-19
-3.6135e-14
-7.84887e-19
-3.58194e-14
-8.1386e-19
-3.55065e-14
-8.41996e-19
-3.51963e-14
-8.69293e-19
-3.48888e-14
-8.95754e-19
-3.45841e-14
-9.2138e-19
-3.4282e-14
-9.46175e-19
-3.39825e-14
-9.70144e-19
-3.36856e-14
-9.93291e-19
-3.33914e-14
-1.01562e-18
-3.30997e-14
-1.03715e-18
-3.28105e-14
-1.05787e-18
-3.25239e-14
-1.0778e-18
-3.22398e-14
-1.09695e-18
-3.19582e-14
-1.11533e-18
-3.1679e-14
-1.13294e-18
-3.14023e-14
-1.1498e-18
-3.11279e-14
-1.16593e-18
-3.0856e-14
-1.18132e-18
-3.05865e-14
-1.196e-18
-3.03193e-14
-1.20997e-18
-3.00544e-14
-1.22326e-18
-2.97919e-14
-1.23586e-18
-2.95316e-14
-1.2478e-18
-2.92737e-14
-1.25909e-18
-2.90179e-14
-1.26974e-18
-2.87645e-14
-1.27977e-18
-2.85132e-14
-1.28919e-18
-2.82641e-14
-1.29801e-18
-2.80172e-14
-1.30625e-18
-2.77725e-14
-1.31392e-18
-2.75299e-14
-1.32104e-18
-2.72894e-14
-1.32762e-18
-2.7051e-14
-1.33366e-18
-2.68147e-14
-1.3392e-18
-2.65804e-14
-1.34423e-18
-2.63482e-14
-1.34878e-18
-2.61181e-14
-1.35286e-18
-2.58899e-14
-1.35647e-18
-2.56638e-14
-1.35964e-18
-2.54396e-14
-1.36238e-18
-2.52173e-14
-1.3647e-18
-2.49971e-14
-1.36661e-18
-2.47787e-14
-1.36812e-18
-2.45622e-14
-1.36925e-18
-2.43477e-14
-1.37001e-18
-2.4135e-14
-1.37041e-18
-2.39241e-14
-1.37046e-18
-2.37152e-14
-1.37017e-18
-2.3508e-14
-1.36956e-18
-2.33026e-14
-1.36864e-18
-2.30991e-14
-1.36741e-18
-2.28973e-14
-1.36589e-18
-2.26973e-14
-1.36409e-18
-2.2499e-14
-1.36202e-18
-2.23025e-14
-1.35968e-18
-2.21076e-14
-1.3571e-18
-2.19145e-14
-1.35427e-18
-2.17231e-14
-1.3512e-18
-2.15333e-14
-2.13452e-14
-1.34791e-18
-5.29241e-20
-4.26901e-14
-1.05325e-19
-4.23172e-14
-1.5715e-19
-4.19475e-14
-2.08348e-19
-4.15811e-14
-2.58872e-19
-4.12178e-14
-3.08679e-19
-4.08578e-14
-3.57729e-19
-4.05009e-14
-4.05982e-19
-4.01471e-14
-4.53405e-19
-3.97963e-14
-4.99965e-19
-3.94487e-14
-5.45635e-19
-3.91041e-14
-5.90387e-19
-3.87625e-14
-6.34199e-19
-3.84239e-14
-6.77049e-19
-3.80882e-14
-7.18919e-19
-3.77555e-14
-7.59794e-19
-3.74257e-14
-7.99659e-19
-3.70988e-14
-8.38504e-19
-3.67747e-14
-8.76319e-19
-3.64534e-14
-9.13097e-19
-3.6135e-14
-9.48833e-19
-3.58193e-14
-9.83524e-19
-3.55064e-14
-1.01717e-18
-3.51963e-14
-1.04977e-18
-3.48888e-14
-1.08132e-18
-3.4584e-14
-1.11183e-18
-3.42819e-14
-1.14131e-18
-3.39825e-14
-1.16975e-18
-3.36856e-14
-1.19717e-18
-3.33913e-14
-1.22358e-18
-3.30996e-14
-1.24898e-18
-3.28105e-14
-1.27339e-18
-3.25239e-14
-1.29681e-18
-3.22398e-14
-1.31926e-18
-3.19581e-14
-1.34075e-18
-3.1679e-14
-1.3613e-18
-3.14022e-14
-1.38092e-18
-3.11279e-14
-1.39962e-18
-3.0856e-14
-1.41742e-18
-3.05865e-14
-1.43434e-18
-3.03193e-14
-1.45039e-18
-3.00544e-14
-1.46559e-18
-2.97919e-14
-1.47996e-18
-2.95316e-14
-1.49351e-18
-2.92737e-14
-1.50626e-18
-2.90179e-14
-1.51823e-18
-2.87644e-14
-1.52944e-18
-2.85132e-14
-1.5399e-18
-2.82641e-14
-1.54963e-18
-2.80172e-14
-1.55865e-18
-2.77725e-14
-1.56698e-18
-2.75298e-14
-1.57464e-18
-2.72894e-14
-1.58164e-18
-2.7051e-14
-1.588e-18
-2.68147e-14
-1.59374e-18
-2.65804e-14
-1.59888e-18
-2.63482e-14
-1.60343e-18
-2.61181e-14
-1.60741e-18
-2.58899e-14
-1.61084e-18
-2.56638e-14
-1.61374e-18
-2.54396e-14
-1.61611e-18
-2.52173e-14
-1.61799e-18
-2.4997e-14
-1.61937e-18
-2.47787e-14
-1.62029e-18
-2.45622e-14
-1.62075e-18
-2.43477e-14
-1.62078e-18
-2.4135e-14
-1.62038e-18
-2.39241e-14
-1.61956e-18
-2.37152e-14
-1.61836e-18
-2.3508e-14
-1.61677e-18
-2.33026e-14
-1.61481e-18
-2.30991e-14
-1.6125e-18
-2.28973e-14
-1.60985e-18
-2.26973e-14
-1.60687e-18
-2.2499e-14
-1.60358e-18
-2.23025e-14
-1.59999e-18
-2.21076e-14
-1.5961e-18
-2.19145e-14
-1.59193e-18
-2.17231e-14
-1.5875e-18
-2.15333e-14
-2.13452e-14
-1.58281e-18
-6.47995e-20
-4.269e-14
-1.28954e-19
-4.23171e-14
-1.92394e-19
-4.19474e-14
-2.55055e-19
-4.1581e-14
-3.16874e-19
-4.12178e-14
-3.77795e-19
-4.08577e-14
-4.37766e-19
-4.05008e-14
-4.96735e-19
-4.0147e-14
-5.5466e-19
-3.97963e-14
-6.11498e-19
-3.94486e-14
-6.67212e-19
-3.9104e-14
-7.21768e-19
-3.87624e-14
-7.75136e-19
-3.84238e-14
-8.27288e-19
-3.80882e-14
-8.78202e-19
-3.77555e-14
-9.27857e-19
-3.74256e-14
-9.76235e-19
-3.70987e-14
-1.02332e-18
-3.67746e-14
-1.06911e-18
-3.64534e-14
-1.11358e-18
-3.61349e-14
-1.15674e-18
-3.58193e-14
-1.19857e-18
-3.55064e-14
-1.23909e-18
-3.51962e-14
-1.27828e-18
-3.48888e-14
-1.31615e-18
-3.4584e-14
-1.35271e-18
-3.42819e-14
-1.38796e-18
-3.39824e-14
-1.42191e-18
-3.36856e-14
-1.45457e-18
-3.33913e-14
-1.48596e-18
-3.30996e-14
-1.51608e-18
-3.28105e-14
-1.54494e-18
-3.25239e-14
-1.57258e-18
-3.22397e-14
-1.59899e-18
-3.19581e-14
-1.62421e-18
-3.16789e-14
-1.64824e-18
-3.14022e-14
-1.6711e-18
-3.11279e-14
-1.69283e-18
-3.0856e-14
-1.71343e-18
-3.05864e-14
-1.73293e-18
-3.03193e-14
-1.75134e-18
-3.00544e-14
-1.7687e-18
-2.97919e-14
-1.78503e-18
-2.95316e-14
-1.80034e-18
-2.92736e-14
-1.81466e-18
-2.90179e-14
-1.82801e-18
-2.87644e-14
-1.84042e-18
-2.85132e-14
-1.85191e-18
-2.82641e-14
-1.8625e-18
-2.80172e-14
-1.87222e-18
-2.77724e-14
-1.88109e-18
-2.75298e-14
-1.88913e-18
-2.72894e-14
-1.89637e-18
-2.7051e-14
-1.90284e-18
-2.68147e-14
-1.90854e-18
-2.65804e-14
-1.91351e-18
-2.63482e-14
-1.91777e-18
-2.61181e-14
-1.92133e-18
-2.58899e-14
-1.92423e-18
-2.56637e-14
-1.92649e-18
-2.54396e-14
-1.92812e-18
-2.52173e-14
-1.92914e-18
-2.4997e-14
-1.92958e-18
-2.47787e-14
-1.92946e-18
-2.45622e-14
-1.9288e-18
-2.43477e-14
-1.92761e-18
-2.4135e-14
-1.92592e-18
-2.39241e-14
-1.92374e-18
-2.37152e-14
-1.9211e-18
-2.3508e-14
-1.91801e-18
-2.33026e-14
-1.91448e-18
-2.30991e-14
-1.91055e-18
-2.28973e-14
-1.90621e-18
-2.26973e-14
-1.90149e-18
-2.2499e-14
-1.89641e-18
-2.23025e-14
-1.89098e-18
-2.21076e-14
-1.88522e-18
-2.19145e-14
-1.87913e-18
-2.17231e-14
-1.87274e-18
-2.15333e-14
-2.13452e-14
-1.86606e-18
-8.00013e-20
-4.269e-14
-1.592e-19
-4.2317e-14
-2.37506e-19
-4.19474e-14
-3.14831e-19
-4.15809e-14
-3.91095e-19
-4.12177e-14
-4.66223e-19
-4.08576e-14
-5.40146e-19
-4.05007e-14
-6.12798e-19
-4.01469e-14
-6.84121e-19
-3.97962e-14
-7.5406e-19
-3.94486e-14
-8.22566e-19
-3.9104e-14
-8.89595e-19
-3.87624e-14
-9.55107e-19
-3.84238e-14
-1.01907e-18
-3.80881e-14
-1.08144e-18
-3.77554e-14
-1.14221e-18
-3.74256e-14
-1.20135e-18
-3.70986e-14
-1.25883e-18
-3.67746e-14
-1.31465e-18
-3.64533e-14
-1.3688e-18
-3.61349e-14
-1.42126e-18
-3.58192e-14
-1.47204e-18
-3.55063e-14
-1.52112e-18
-3.51962e-14
-1.56852e-18
-3.48887e-14
-1.61424e-18
-3.4584e-14
-1.65828e-18
-3.42818e-14
-1.70065e-18
-3.39824e-14
-1.74137e-18
-3.36855e-14
-1.78045e-18
-3.33913e-14
-1.8179e-18
-3.30996e-14
-1.85375e-18
-3.28104e-14
-1.88801e-18
-3.25238e-14
-1.9207e-18
-3.22397e-14
-1.95185e-18
-3.19581e-14
-1.98147e-18
-3.16789e-14
-2.0096e-18
-3.14022e-14
-2.03626e-18
-3.11279e-14
-2.06148e-18
-3.0856e-14
-2.08528e-18
-3.05864e-14
-2.10769e-18
-3.03192e-14
-2.12874e-18
-3.00544e-14
-2.14847e-18
-2.97918e-14
-2.1669e-18
-2.95316e-14
-2.18405e-18
-2.92736e-14
-2.19997e-18
-2.90179e-14
-2.21468e-18
-2.87644e-14
-2.22822e-18
-2.85132e-14
-2.24061e-18
-2.82641e-14
-2.25189e-18
-2.80172e-14
-2.26208e-18
-2.77724e-14
-2.27123e-18
-2.75298e-14
-2.27935e-18
-2.72893e-14
-2.28648e-18
-2.7051e-14
-2.29265e-18
-2.68147e-14
-2.29789e-18
-2.65804e-14
-2.30223e-18
-2.63482e-14
-2.3057e-18
-2.61181e-14
-2.30833e-18
-2.58899e-14
-2.31015e-18
-2.56637e-14
-2.31118e-18
-2.54396e-14
-2.31145e-18
-2.52173e-14
-2.311e-18
-2.4997e-14
-2.30984e-18
-2.47787e-14
-2.308e-18
-2.45622e-14
-2.30552e-18
-2.43477e-14
-2.30241e-18
-2.4135e-14
-2.2987e-18
-2.39242e-14
-2.29441e-18
-2.37152e-14
-2.28957e-18
-2.3508e-14
-2.2842e-18
-2.33026e-14
-2.27832e-18
-2.30991e-14
-2.27196e-18
-2.28973e-14
-2.26514e-18
-2.26973e-14
-2.25787e-18
-2.2499e-14
-2.25018e-18
-2.23025e-14
-2.24209e-18
-2.21076e-14
-2.23361e-18
-2.19145e-14
-2.22477e-18
-2.17231e-14
-2.21558e-18
-2.15333e-14
-2.13452e-14
-2.20607e-18
-9.95682e-20
-4.26899e-14
-1.9813e-19
-4.23169e-14
-2.95562e-19
-4.19473e-14
-3.91751e-19
-4.15808e-14
-4.86589e-19
-4.12176e-14
-5.79977e-19
-4.08575e-14
-6.7182e-19
-4.05006e-14
-7.62034e-19
-4.01468e-14
-8.5054e-19
-3.97961e-14
-9.37266e-19
-3.94485e-14
-1.02215e-18
-3.91039e-14
-1.10512e-18
-3.87623e-14
-1.18614e-18
-3.84237e-14
-1.26516e-18
-3.8088e-14
-1.34214e-18
-3.77553e-14
-1.41703e-18
-3.74255e-14
-1.48982e-18
-3.70986e-14
-1.56048e-18
-3.67745e-14
-1.62899e-18
-3.64533e-14
-1.69534e-18
-3.61348e-14
-1.75951e-18
-3.58192e-14
-1.82151e-18
-3.55063e-14
-1.88133e-18
-3.51961e-14
-1.93897e-18
-3.48887e-14
-1.99445e-18
-3.45839e-14
-2.04776e-18
-3.42818e-14
-2.09893e-18
-3.39823e-14
-2.14798e-18
-3.36855e-14
-2.19491e-18
-3.33912e-14
-2.23976e-18
-3.30995e-14
-2.28254e-18
-3.28104e-14
-2.32329e-18
-3.25238e-14
-2.36203e-18
-3.22397e-14
-2.39879e-18
-3.1958e-14
-2.43361e-18
-3.16789e-14
-2.46652e-18
-3.14022e-14
-2.49756e-18
-3.11278e-14
-2.52675e-18
-3.08559e-14
-2.55415e-18
-3.05864e-14
-2.57978e-18
-3.03192e-14
-2.60369e-18
-3.00544e-14
-2.62591e-18
-2.97918e-14
-2.64649e-18
-2.95316e-14
-2.66547e-18
-2.92736e-14
-2.68288e-18
-2.90179e-14
-2.69878e-18
-2.87644e-14
-2.7132e-18
-2.85131e-14
-2.72618e-18
-2.82641e-14
-2.73777e-18
-2.80172e-14
-2.748e-18
-2.77724e-14
-2.75692e-18
-2.75298e-14
-2.76457e-18
-2.72893e-14
-2.77099e-18
-2.7051e-14
-2.77622e-18
-2.68146e-14
-2.78029e-18
-2.65804e-14
-2.78326e-18
-2.63482e-14
-2.78516e-18
-2.61181e-14
-2.78602e-18
-2.58899e-14
-2.78589e-18
-2.56637e-14
-2.7848e-18
-2.54396e-14
-2.78278e-18
-2.52173e-14
-2.77989e-18
-2.49971e-14
-2.77614e-18
-2.47787e-14
-2.77157e-18
-2.45622e-14
-2.76622e-18
-2.43477e-14
-2.76013e-18
-2.4135e-14
-2.75331e-18
-2.39242e-14
-2.74582e-18
-2.37152e-14
-2.73766e-18
-2.3508e-14
-2.72888e-18
-2.33027e-14
-2.71951e-18
-2.30991e-14
-2.70957e-18
-2.28973e-14
-2.69909e-18
-2.26973e-14
-2.68809e-18
-2.2499e-14
-2.67661e-18
-2.23025e-14
-2.66467e-18
-2.21077e-14
-2.6523e-18
-2.19145e-14
-2.63951e-18
-2.17231e-14
-2.62633e-18
-2.15333e-14
-2.13452e-14
-2.61278e-18
-1.24922e-19
-4.26897e-14
-2.48569e-19
-4.23168e-14
-3.70777e-19
-4.19471e-14
-4.91393e-19
-4.15807e-14
-6.10272e-19
-4.12175e-14
-7.2728e-19
-4.08574e-14
-8.42292e-19
-4.05005e-14
-9.55194e-19
-4.01467e-14
-1.06588e-18
-3.9796e-14
-1.17425e-18
-3.94484e-14
-1.28023e-18
-3.91038e-14
-1.38372e-18
-3.87622e-14
-1.48467e-18
-3.84236e-14
-1.58301e-18
-3.80879e-14
-1.67868e-18
-3.77552e-14
-1.77164e-18
-3.74254e-14
-1.86186e-18
-3.70985e-14
-1.9493e-18
-3.67744e-14
-2.03394e-18
-3.64532e-14
-2.11576e-18
-3.61347e-14
-2.19474e-18
-3.58191e-14
-2.27089e-18
-3.55062e-14
-2.3442e-18
-3.5196e-14
-2.41468e-18
-3.48886e-14
-2.48233e-18
-3.45838e-14
-2.54718e-18
-3.42817e-14
-2.60924e-18
-3.39823e-14
-2.66854e-18
-3.36854e-14
-2.7251e-18
-3.33912e-14
-2.77895e-18
-3.30995e-14
-2.83013e-18
-3.28103e-14
-2.87868e-18
-3.25237e-14
-2.92463e-18
-3.22396e-14
-2.96803e-18
-3.1958e-14
-3.00892e-18
-3.16788e-14
-3.04734e-18
-3.14021e-14
-3.08335e-18
-3.11278e-14
-3.117e-18
-3.08559e-14
-3.14834e-18
-3.05864e-14
-3.17741e-18
-3.03192e-14
-3.20428e-18
-3.00543e-14
-3.229e-18
-2.97918e-14
-3.25162e-18
-2.95316e-14
-3.27219e-18
-2.92736e-14
-3.29078e-18
-2.90179e-14
-3.30744e-18
-2.87644e-14
-3.32223e-18
-2.85131e-14
-3.3352e-18
-2.8264e-14
-3.34641e-18
-2.80172e-14
-3.35591e-18
-2.77724e-14
-3.36376e-18
-2.75298e-14
-3.37002e-18
-2.72893e-14
-3.37474e-18
-2.70509e-14
-3.37798e-18
-2.68146e-14
-3.37978e-18
-2.65804e-14
-3.3802e-18
-2.63482e-14
-3.3793e-18
-2.61181e-14
-3.37712e-18
-2.58899e-14
-3.37371e-18
-2.56637e-14
-3.36913e-18
-2.54396e-14
-3.36342e-18
-2.52173e-14
-3.35663e-18
-2.49971e-14
-3.34881e-18
-2.47787e-14
-3.34e-18
-2.45622e-14
-3.33025e-18
-2.43477e-14
-3.3196e-18
-2.4135e-14
-3.30809e-18
-2.39242e-14
-3.29576e-18
-2.37152e-14
-3.28266e-18
-2.3508e-14
-3.26882e-18
-2.33027e-14
-3.25429e-18
-2.30991e-14
-3.23909e-18
-2.28973e-14
-3.22327e-18
-2.26973e-14
-3.20686e-18
-2.2499e-14
-3.1899e-18
-2.23025e-14
-3.17241e-18
-2.21077e-14
-3.15442e-18
-2.19146e-14
-3.13598e-18
-2.17231e-14
-3.11711e-18
-2.15334e-14
-2.13453e-14
-3.09783e-18
-1.5802e-19
-4.26896e-14
-3.14411e-19
-4.23166e-14
-4.68953e-19
-4.1947e-14
-6.21435e-19
-4.15806e-14
-7.71664e-19
-4.12173e-14
-9.19456e-19
-4.08573e-14
-1.06464e-18
-4.05004e-14
-1.20707e-18
-4.01466e-14
-1.34659e-18
-3.97959e-14
-1.48308e-18
-3.94482e-14
-1.61642e-18
-3.91036e-14
-1.74651e-18
-3.87621e-14
-1.87324e-18
-3.84235e-14
-1.99654e-18
-3.80878e-14
-2.11633e-18
-3.77551e-14
-2.23256e-18
-3.74253e-14
-2.34517e-18
-3.70984e-14
-2.45412e-18