/*--------------------------------*- C++ -*----------------------------------*\
  =========                 |
  \\      /  F ield         | OpenFOAM: The Open Source CFD Toolbox
   \\    /   O peration     | Website:  https://openfoam.org
    \\  /    A nd           | Version:  8
     \\/     M anipulation  |
\*---------------------------------------------------------------------------*/
FoamFile
{
    version     2.0;
    format      ascii;
    class       volVectorField;
    location    "3000";
    object      Ua;
}
// * * * * * * * * * * * * * * * * * * * * * * * * * * * * * * * * * * * * * //

dimensions      [0 1 -1 0 0 0 0];

internalField   nonuniform List<vector> 
12800
(
(-3.71686e-09 5.36548e-09 0)
(-1.1115e-08 5.36102e-09 0)
(-1.84395e-08 5.3522e-09 0)
(-2.56852e-08 5.33917e-09 0)
(-3.28474e-08 5.32204e-09 0)
(-3.99215e-08 5.30093e-09 0)
(-4.69035e-08 5.27599e-09 0)
(-5.37894e-08 5.24732e-09 0)
(-6.05756e-08 5.21507e-09 0)
(-6.72589e-08 5.17936e-09 0)
(-7.38361e-08 5.14032e-09 0)
(-8.03045e-08 5.09808e-09 0)
(-8.66616e-08 5.05275e-09 0)
(-9.29051e-08 5.00448e-09 0)
(-9.90328e-08 4.95338e-09 0)
(-1.05043e-07 4.89957e-09 0)
(-1.10934e-07 4.84319e-09 0)
(-1.16705e-07 4.78434e-09 0)
(-1.22354e-07 4.72316e-09 0)
(-1.2788e-07 4.65975e-09 0)
(-1.33282e-07 4.59422e-09 0)
(-1.38561e-07 4.52671e-09 0)
(-1.43715e-07 4.4573e-09 0)
(-1.48743e-07 4.38612e-09 0)
(-1.53647e-07 4.31327e-09 0)
(-1.58425e-07 4.23884e-09 0)
(-1.63079e-07 4.16295e-09 0)
(-1.67608e-07 4.08569e-09 0)
(-1.72012e-07 4.00716e-09 0)
(-1.76293e-07 3.92745e-09 0)
(-1.8045e-07 3.84666e-09 0)
(-1.84485e-07 3.76486e-09 0)
(-1.88398e-07 3.68215e-09 0)
(-1.9219e-07 3.59861e-09 0)
(-1.95863e-07 3.51432e-09 0)
(-1.99417e-07 3.42936e-09 0)
(-2.02853e-07 3.3438e-09 0)
(-2.06173e-07 3.25771e-09 0)
(-2.09378e-07 3.17118e-09 0)
(-2.12469e-07 3.08426e-09 0)
(-2.15448e-07 2.99701e-09 0)
(-2.18316e-07 2.90951e-09 0)
(-2.21075e-07 2.82182e-09 0)
(-2.23725e-07 2.73398e-09 0)
(-2.2627e-07 2.64606e-09 0)
(-2.2871e-07 2.55811e-09 0)
(-2.31046e-07 2.47018e-09 0)
(-2.33281e-07 2.38232e-09 0)
(-2.35417e-07 2.29458e-09 0)
(-2.37455e-07 2.207e-09 0)
(-2.39396e-07 2.11963e-09 0)
(-2.41243e-07 2.0325e-09 0)
(-2.42996e-07 1.94566e-09 0)
(-2.44659e-07 1.85913e-09 0)
(-2.46232e-07 1.77296e-09 0)
(-2.47718e-07 1.68719e-09 0)
(-2.49118e-07 1.60183e-09 0)
(-2.50434e-07 1.51692e-09 0)
(-2.51668e-07 1.43249e-09 0)
(-2.52821e-07 1.34857e-09 0)
(-2.53895e-07 1.26517e-09 0)
(-2.54892e-07 1.18233e-09 0)
(-2.55813e-07 1.10007e-09 0)
(-2.56661e-07 1.0184e-09 0)
(-2.57437e-07 9.37344e-10 0)
(-2.58143e-07 8.56924e-10 0)
(-2.5878e-07 7.77155e-10 0)
(-2.5935e-07 6.98052e-10 0)
(-2.59854e-07 6.19629e-10 0)
(-2.60295e-07 5.419e-10 0)
(-2.60674e-07 4.64876e-10 0)
(-2.60992e-07 3.88569e-10 0)
(-2.61252e-07 3.1299e-10 0)
(-2.61454e-07 2.38147e-10 0)
(-2.616e-07 1.64049e-10 0)
(-2.61691e-07 9.07025e-11 0)
(-2.6173e-07 1.81149e-11 0)
(-2.61717e-07 -5.37081e-11 0)
(-2.61654e-07 -1.24762e-10 0)
(-2.61543e-07 -1.95042e-10 0)
(-3.84638e-09 1.62824e-08 0)
(-1.15023e-08 1.62688e-08 0)
(-1.90819e-08 1.6242e-08 0)
(-2.65799e-08 1.62023e-08 0)
(-3.39911e-08 1.61501e-08 0)
(-4.1311e-08 1.60859e-08 0)
(-4.85352e-08 1.60099e-08 0)
(-5.56597e-08 1.59226e-08 0)
(-6.26806e-08 1.58244e-08 0)
(-6.95946e-08 1.57157e-08 0)
(-7.63984e-08 1.55968e-08 0)
(-8.30891e-08 1.54682e-08 0)
(-8.96641e-08 1.53302e-08 0)
(-9.61209e-08 1.51832e-08 0)
(-1.02458e-07 1.50277e-08 0)
(-1.08672e-07 1.48639e-08 0)
(-1.14762e-07 1.46922e-08 0)
(-1.20728e-07 1.45131e-08 0)
(-1.26566e-07 1.43269e-08 0)
(-1.32277e-07 1.41339e-08 0)
(-1.3786e-07 1.39344e-08 0)
(-1.43314e-07 1.37289e-08 0)
(-1.48637e-07 1.35177e-08 0)
(-1.53831e-07 1.33011e-08 0)
(-1.58895e-07 1.30794e-08 0)
(-1.63829e-07 1.28529e-08 0)
(-1.68633e-07 1.2622e-08 0)
(-1.73308e-07 1.2387e-08 0)
(-1.77853e-07 1.21481e-08 0)
(-1.82269e-07 1.19056e-08 0)
(-1.86558e-07 1.16598e-08 0)
(-1.90719e-07 1.1411e-08 0)
(-1.94753e-07 1.11594e-08 0)
(-1.98663e-07 1.09054e-08 0)
(-2.02448e-07 1.0649e-08 0)
(-2.06109e-07 1.03906e-08 0)
(-2.09649e-07 1.01305e-08 0)
(-2.13068e-07 9.86873e-09 0)
(-2.16367e-07 9.60563e-09 0)
(-2.19549e-07 9.34137e-09 0)
(-2.22614e-07 9.07616e-09 0)
(-2.25563e-07 8.81018e-09 0)
(-2.284e-07 8.54363e-09 0)
(-2.31125e-07 8.27667e-09 0)
(-2.33739e-07 8.00947e-09 0)
(-2.36245e-07 7.74221e-09 0)
(-2.38644e-07 7.47503e-09 0)
(-2.40938e-07 7.20808e-09 0)
(-2.43129e-07 6.94151e-09 0)
(-2.45218e-07 6.67545e-09 0)
(-2.47208e-07 6.41003e-09 0)
(-2.49099e-07 6.14538e-09 0)
(-2.50895e-07 5.88161e-09 0)
(-2.52596e-07 5.61883e-09 0)
(-2.54205e-07 5.35716e-09 0)
(-2.55723e-07 5.09669e-09 0)
(-2.57152e-07 4.83751e-09 0)
(-2.58495e-07 4.57972e-09 0)
(-2.59752e-07 4.32341e-09 0)
(-2.60926e-07 4.06865e-09 0)
(-2.62019e-07 3.81551e-09 0)
(-2.63032e-07 3.56408e-09 0)
(-2.63967e-07 3.31441e-09 0)
(-2.64826e-07 3.06657e-09 0)
(-2.6561e-07 2.82062e-09 0)
(-2.66322e-07 2.57661e-09 0)
(-2.66964e-07 2.3346e-09 0)
(-2.67536e-07 2.09462e-09 0)
(-2.6804e-07 1.85672e-09 0)
(-2.6848e-07 1.62095e-09 0)
(-2.68855e-07 1.38733e-09 0)
(-2.69167e-07 1.15591e-09 0)
(-2.69419e-07 9.26711e-10 0)
(-2.69612e-07 6.99762e-10 0)
(-2.69747e-07 4.75088e-10 0)
(-2.69826e-07 2.52711e-10 0)
(-2.69851e-07 3.26517e-11 0)
(-2.69822e-07 -1.85074e-10 0)
(-2.69743e-07 -4.00451e-10 0)
(-2.69613e-07 -6.13466e-10 0)
(-4.11127e-09 2.77687e-08 0)
(-1.22944e-08 2.77453e-08 0)
(-2.03957e-08 2.76992e-08 0)
(-2.84095e-08 2.76311e-08 0)
(-3.63301e-08 2.75415e-08 0)
(-4.41526e-08 2.74312e-08 0)
(-5.18722e-08 2.73007e-08 0)
(-5.94844e-08 2.71509e-08 0)
(-6.69851e-08 2.69823e-08 0)
(-7.43706e-08 2.67956e-08 0)
(-8.16375e-08 2.65916e-08 0)
(-8.87824e-08 2.63708e-08 0)
(-9.58026e-08 2.61339e-08 0)
(-1.02695e-07 2.58817e-08 0)
(-1.09459e-07 2.56147e-08 0)
(-1.1609e-07 2.53336e-08 0)
(-1.22588e-07 2.5039e-08 0)
(-1.2895e-07 2.47317e-08 0)
(-1.35176e-07 2.44121e-08 0)
(-1.41265e-07 2.4081e-08 0)
(-1.47215e-07 2.37389e-08 0)
(-1.53025e-07 2.33865e-08 0)
(-1.58696e-07 2.30242e-08 0)
(-1.64227e-07 2.26527e-08 0)
(-1.69618e-07 2.22726e-08 0)
(-1.74868e-07 2.18843e-08 0)
(-1.79978e-07 2.14885e-08 0)
(-1.84949e-07 2.10856e-08 0)
(-1.8978e-07 2.06761e-08 0)
(-1.94473e-07 2.02605e-08 0)
(-1.99028e-07 1.98394e-08 0)
(-2.03446e-07 1.94131e-08 0)
(-2.07727e-07 1.89821e-08 0)
(-2.11874e-07 1.85469e-08 0)
(-2.15887e-07 1.81079e-08 0)
(-2.19767e-07 1.76655e-08 0)
(-2.23517e-07 1.722e-08 0)
(-2.27136e-07 1.67719e-08 0)
(-2.30627e-07 1.63216e-08 0)
(-2.33991e-07 1.58693e-08 0)
(-2.3723e-07 1.54155e-08 0)
(-2.40345e-07 1.49604e-08 0)
(-2.43339e-07 1.45044e-08 0)
(-2.46213e-07 1.40477e-08 0)
(-2.48968e-07 1.35908e-08 0)
(-2.51608e-07 1.31338e-08 0)
(-2.54132e-07 1.26769e-08 0)
(-2.56545e-07 1.22206e-08 0)
(-2.58846e-07 1.1765e-08 0)
(-2.61039e-07 1.13103e-08 0)
(-2.63125e-07 1.08568e-08 0)
(-2.65106e-07 1.04046e-08 0)
(-2.66985e-07 9.95404e-09 0)
(-2.68763e-07 9.50524e-09 0)
(-2.70442e-07 9.05839e-09 0)
(-2.72024e-07 8.61366e-09 0)
(-2.73511e-07 8.17122e-09 0)
(-2.74906e-07 7.73121e-09 0)
(-2.7621e-07 7.29378e-09 0)
(-2.77425e-07 6.85907e-09 0)
(-2.78553e-07 6.42721e-09 0)
(-2.79597e-07 5.99832e-09 0)
(-2.80557e-07 5.5725e-09 0)
(-2.81437e-07 5.14988e-09 0)
(-2.82237e-07 4.73053e-09 0)
(-2.8296e-07 4.31456e-09 0)
(-2.83608e-07 3.90206e-09 0)
(-2.84183e-07 3.49309e-09 0)
(-2.84686e-07 3.08773e-09 0)
(-2.85119e-07 2.68605e-09 0)
(-2.85485e-07 2.28812e-09 0)
(-2.85784e-07 1.89397e-09 0)
(-2.86019e-07 1.50368e-09 0)
(-2.86191e-07 1.11728e-09 0)
(-2.86302e-07 7.34808e-10 0)
(-2.86354e-07 3.56307e-10 0)
(-2.86349e-07 -1.81926e-11 0)
(-2.86287e-07 -3.88663e-10 0)
(-2.86171e-07 -7.55082e-10 0)
(-2.86003e-07 -1.11743e-09 0)
(-4.52366e-09 4.02325e-08 0)
(-1.35275e-08 4.01983e-08 0)
(-2.2441e-08 4.01308e-08 0)
(-3.12576e-08 4.00311e-08 0)
(-3.99712e-08 3.98999e-08 0)
(-4.85758e-08 3.97384e-08 0)
(-5.70662e-08 3.95475e-08 0)
(-6.54373e-08 3.93282e-08 0)
(-7.36845e-08 3.90815e-08 0)
(-8.18036e-08 3.88083e-08 0)
(-8.97904e-08 3.85097e-08 0)
(-9.76416e-08 3.81866e-08 0)
(-1.05354e-07 3.784e-08 0)
(-1.12924e-07 3.7471e-08 0)
(-1.2035e-07 3.70805e-08 0)
(-1.27629e-07 3.66693e-08 0)
(-1.34759e-07 3.62386e-08 0)
(-1.41738e-07 3.57891e-08 0)
(-1.48565e-07 3.5322e-08 0)
(-1.55239e-07 3.48379e-08 0)
(-1.61758e-07 3.43379e-08 0)
(-1.68122e-07 3.38228e-08 0)
(-1.7433e-07 3.32934e-08 0)
(-1.80383e-07 3.27507e-08 0)
(-1.86279e-07 3.21954e-08 0)
(-1.92018e-07 3.16283e-08 0)
(-1.97602e-07 3.10502e-08 0)
(-2.03031e-07 3.0462e-08 0)
(-2.08304e-07 2.98642e-08 0)
(-2.13423e-07 2.92577e-08 0)
(-2.18389e-07 2.86431e-08 0)
(-2.23202e-07 2.80212e-08 0)
(-2.27864e-07 2.73925e-08 0)
(-2.32376e-07 2.67578e-08 0)
(-2.36739e-07 2.61177e-08 0)
(-2.40956e-07 2.54726e-08 0)
(-2.45026e-07 2.48234e-08 0)
(-2.48952e-07 2.41704e-08 0)
(-2.52736e-07 2.35143e-08 0)
(-2.5638e-07 2.28555e-08 0)
(-2.59885e-07 2.21945e-08 0)
(-2.63253e-07 2.15319e-08 0)
(-2.66486e-07 2.08681e-08 0)
(-2.69587e-07 2.02035e-08 0)
(-2.72556e-07 1.95386e-08 0)
(-2.75398e-07 1.88738e-08 0)
(-2.78112e-07 1.82094e-08 0)
(-2.80703e-07 1.75458e-08 0)
(-2.83171e-07 1.68835e-08 0)
(-2.8552e-07 1.62226e-08 0)
(-2.87751e-07 1.55636e-08 0)
(-2.89866e-07 1.49068e-08 0)
(-2.91868e-07 1.42524e-08 0)
(-2.9376e-07 1.36007e-08 0)
(-2.95542e-07 1.2952e-08 0)
(-2.97219e-07 1.23066e-08 0)
(-2.98791e-07 1.16646e-08 0)
(-3.00261e-07 1.10263e-08 0)
(-3.01632e-07 1.03919e-08 0)
(-3.02906e-07 9.76155e-09 0)
(-3.04084e-07 9.13552e-09 0)
(-3.0517e-07 8.51393e-09 0)
(-3.06164e-07 7.89696e-09 0)
(-3.07071e-07 7.28475e-09 0)
(-3.0789e-07 6.67744e-09 0)
(-3.08626e-07 6.07517e-09 0)
(-3.09279e-07 5.47805e-09 0)
(-3.09853e-07 4.88619e-09 0)
(-3.10348e-07 4.2997e-09 0)
(-3.10768e-07 3.71868e-09 0)
(-3.11113e-07 3.1432e-09 0)
(-3.11387e-07 2.57335e-09 0)
(-3.11591e-07 2.0092e-09 0)
(-3.11727e-07 1.4508e-09 0)
(-3.11796e-07 8.98219e-10 0)
(-3.11802e-07 3.51501e-10 0)
(-3.11745e-07 -1.8931e-10 0)
(-3.11627e-07 -7.24178e-10 0)
(-3.11451e-07 -1.25307e-09 0)
(-3.11217e-07 -1.77596e-09 0)
(-5.10278e-09 5.41275e-08 0)
(-1.52592e-08 5.40808e-08 0)
(-2.53132e-08 5.39888e-08 0)
(-3.52572e-08 5.38527e-08 0)
(-4.50839e-08 5.36738e-08 0)
(-5.47865e-08 5.34534e-08 0)
(-6.43589e-08 5.3193e-08 0)
(-7.37949e-08 5.28939e-08 0)
(-8.30894e-08 5.25573e-08 0)
(-9.22372e-08 5.21848e-08 0)
(-1.01234e-07 5.17776e-08 0)
(-1.10075e-07 5.13371e-08 0)
(-1.18757e-07 5.08647e-08 0)
(-1.27276e-07 5.03616e-08 0)
(-1.3563e-07 4.98293e-08 0)
(-1.43815e-07 4.92691e-08 0)
(-1.51829e-07 4.86822e-08 0)
(-1.59671e-07 4.80699e-08 0)
(-1.67338e-07 4.74336e-08 0)
(-1.74829e-07 4.67744e-08 0)
(-1.82143e-07 4.60936e-08 0)
(-1.8928e-07 4.53924e-08 0)
(-1.96237e-07 4.4672e-08 0)
(-2.03016e-07 4.39335e-08 0)
(-2.09615e-07 4.3178e-08 0)
(-2.16036e-07 4.24067e-08 0)
(-2.22278e-07 4.16206e-08 0)
(-2.28342e-07 4.08209e-08 0)
(-2.34229e-07 4.00084e-08 0)
(-2.39939e-07 3.91843e-08 0)
(-2.45474e-07 3.83494e-08 0)
(-2.50834e-07 3.75047e-08 0)
(-2.56022e-07 3.66511e-08 0)
(-2.61038e-07 3.57895e-08 0)
(-2.65884e-07 3.49207e-08 0)
(-2.70563e-07 3.40456e-08 0)
(-2.75075e-07 3.3165e-08 0)
(-2.79423e-07 3.22796e-08 0)
(-2.83609e-07 3.13901e-08 0)
(-2.87635e-07 3.04973e-08 0)
(-2.91503e-07 2.96019e-08 0)
(-2.95216e-07 2.87044e-08 0)
(-2.98775e-07 2.78056e-08 0)
(-3.02183e-07 2.6906e-08 0)
(-3.05443e-07 2.60063e-08 0)
(-3.08558e-07 2.51069e-08 0)
(-3.11528e-07 2.42084e-08 0)
(-3.14358e-07 2.33113e-08 0)
(-3.1705e-07 2.24161e-08 0)
(-3.19606e-07 2.15232e-08 0)
(-3.22029e-07 2.06331e-08 0)
(-3.24322e-07 1.97462e-08 0)
(-3.26487e-07 1.88629e-08 0)
(-3.28527e-07 1.79835e-08 0)
(-3.30444e-07 1.71085e-08 0)
(-3.32242e-07 1.62381e-08 0)
(-3.33922e-07 1.53726e-08 0)
(-3.35488e-07 1.45124e-08 0)
(-3.36942e-07 1.36577e-08 0)
(-3.38287e-07 1.28088e-08 0)
(-3.39525e-07 1.1966e-08 0)
(-3.40659e-07 1.11294e-08 0)
(-3.41691e-07 1.02993e-08 0)
(-3.42624e-07 9.47587e-09 0)
(-3.43461e-07 8.65931e-09 0)
(-3.44204e-07 7.84978e-09 0)
(-3.44855e-07 7.04745e-09 0)
(-3.45416e-07 6.25245e-09 0)
(-3.45891e-07 5.46492e-09 0)
(-3.46282e-07 4.68499e-09 0)
(-3.4659e-07 3.91275e-09 0)
(-3.46818e-07 3.14831e-09 0)
(-3.46969e-07 2.39177e-09 0)
(-3.47045e-07 1.64319e-09 0)
(-3.47047e-07 9.02643e-10 0)
(-3.46978e-07 1.70197e-10 0)
(-3.4684e-07 -5.54099e-10 0)
(-3.46636e-07 -1.2702e-09 0)
(-3.46366e-07 -1.97808e-09 0)
(-3.46034e-07 -2.6777e-09 0)
(-5.87645e-09 6.99751e-08 0)
(-1.75725e-08 6.99137e-08 0)
(-2.91501e-08 6.97926e-08 0)
(-4.05999e-08 6.96135e-08 0)
(-5.19133e-08 6.93781e-08 0)
(-6.30821e-08 6.90881e-08 0)
(-7.40987e-08 6.87455e-08 0)
(-8.49561e-08 6.83519e-08 0)
(-9.56479e-08 6.79092e-08 0)
(-1.06168e-07 6.74192e-08 0)
(-1.16511e-07 6.68837e-08 0)
(-1.26671e-07 6.63044e-08 0)
(-1.36645e-07 6.56833e-08 0)
(-1.46428e-07 6.5022e-08 0)
(-1.56016e-07 6.43224e-08 0)
(-1.65407e-07 6.35862e-08 0)
(-1.74597e-07 6.28152e-08 0)
(-1.83585e-07 6.2011e-08 0)
(-1.92367e-07 6.11753e-08 0)
(-2.00943e-07 6.03099e-08 0)
(-2.0931e-07 5.94162e-08 0)
(-2.17469e-07 5.8496e-08 0)
(-2.25418e-07 5.75508e-08 0)
(-2.33157e-07 5.65822e-08 0)
(-2.40687e-07 5.55916e-08 0)
(-2.48006e-07 5.45805e-08 0)
(-2.55116e-07 5.35504e-08 0)
(-2.62017e-07 5.25026e-08 0)
(-2.6871e-07 5.14384e-08 0)
(-2.75196e-07 5.03593e-08 0)
(-2.81478e-07 4.92665e-08 0)
(-2.87555e-07 4.81612e-08 0)
(-2.9343e-07 4.70447e-08 0)
(-2.99105e-07 4.5918e-08 0)
(-3.04581e-07 4.47824e-08 0)
(-3.09861e-07 4.36389e-08 0)
(-3.14948e-07 4.24885e-08 0)
(-3.19843e-07 4.13323e-08 0)
(-3.24548e-07 4.01712e-08 0)
(-3.29068e-07 3.90062e-08 0)
(-3.33404e-07 3.78382e-08 0)
(-3.37559e-07 3.6668e-08 0)
(-3.41536e-07 3.54965e-08 0)
(-3.45337e-07 3.43244e-08 0)
(-3.48967e-07 3.31526e-08 0)
(-3.52427e-07 3.19816e-08 0)
(-3.55721e-07 3.08123e-08 0)
(-3.58852e-07 2.96453e-08 0)
(-3.61824e-07 2.84812e-08 0)
(-3.64638e-07 2.73206e-08 0)
(-3.67299e-07 2.61641e-08 0)
(-3.69809e-07 2.50122e-08 0)
(-3.72173e-07 2.38654e-08 0)
(-3.74392e-07 2.27243e-08 0)
(-3.7647e-07 2.15891e-08 0)
(-3.78411e-07 2.04605e-08 0)
(-3.80217e-07 1.93388e-08 0)
(-3.81892e-07 1.82243e-08 0)
(-3.83438e-07 1.71175e-08 0)
(-3.8486e-07 1.60186e-08 0)
(-3.86159e-07 1.4928e-08 0)
(-3.87339e-07 1.3846e-08 0)
(-3.88403e-07 1.27728e-08 0)
(-3.89355e-07 1.17087e-08 0)
(-3.90196e-07 1.06539e-08 0)
(-3.90931e-07 9.60864e-09 0)
(-3.91561e-07 8.57312e-09 0)
(-3.9209e-07 7.5475e-09 0)
(-3.92521e-07 6.53195e-09 0)
(-3.92856e-07 5.52661e-09 0)
(-3.93098e-07 4.53163e-09 0)
(-3.93249e-07 3.54712e-09 0)
(-3.93314e-07 2.57318e-09 0)
(-3.93293e-07 1.60991e-09 0)
(-3.9319e-07 6.57391e-10 0)
(-3.93007e-07 -2.84317e-10 0)
(-3.92746e-07 -1.21515e-09 0)
(-3.92411e-07 -2.13507e-09 0)
(-3.92003e-07 -3.04404e-09 0)
(-3.91525e-07 -3.94202e-09 0)
(-6.88317e-09 8.83926e-08 0)
(-2.05826e-08 8.83134e-08 0)
(-3.41424e-08 8.8157e-08 0)
(-4.75512e-08 8.79257e-08 0)
(-6.07983e-08 8.76218e-08 0)
(-7.38737e-08 8.72475e-08 0)
(-8.67681e-08 8.68053e-08 0)
(-9.94728e-08 8.62973e-08 0)
(-1.1198e-07 8.57261e-08 0)
(-1.24282e-07 8.50939e-08 0)
(-1.36372e-07 8.4403e-08 0)
(-1.48245e-07 8.36559e-08 0)
(-1.59893e-07 8.28549e-08 0)
(-1.71314e-07 8.20024e-08 0)
(-1.82502e-07 8.11006e-08 0)
(-1.93453e-07 8.01518e-08 0)
(-2.04163e-07 7.91584e-08 0)
(-2.14631e-07 7.81225e-08 0)
(-2.24853e-07 7.70464e-08 0)
(-2.34828e-07 7.59322e-08 0)
(-2.44554e-07 7.47821e-08 0)
(-2.54029e-07 7.35981e-08 0)
(-2.63253e-07 7.23824e-08 0)
(-2.72227e-07 7.11369e-08 0)
(-2.80948e-07 6.98636e-08 0)
(-2.89419e-07 6.85644e-08 0)
(-2.97639e-07 6.72411e-08 0)
(-3.0561e-07 6.58957e-08 0)
(-3.13333e-07 6.45298e-08 0)
(-3.20808e-07 6.31452e-08 0)
(-3.28039e-07 6.17435e-08 0)
(-3.35026e-07 6.03264e-08 0)
(-3.41772e-07 5.88954e-08 0)
(-3.4828e-07 5.74521e-08 0)
(-3.54551e-07 5.59979e-08 0)
(-3.60589e-07 5.45341e-08 0)
(-3.66397e-07 5.30623e-08 0)
(-3.71977e-07 5.15836e-08 0)
(-3.77332e-07 5.00994e-08 0)
(-3.82466e-07 4.86108e-08 0)
(-3.87383e-07 4.7119e-08 0)
(-3.92085e-07 4.56251e-08 0)
(-3.96577e-07 4.41302e-08 0)
(-4.00861e-07 4.26354e-08 0)
(-4.04942e-07 4.11415e-08 0)
(-4.08823e-07 3.96495e-08 0)
(-4.12508e-07 3.81603e-08 0)
(-4.16002e-07 3.66747e-08 0)
(-4.19306e-07 3.51935e-08 0)
(-4.22427e-07 3.37176e-08 0)
(-4.25367e-07 3.22476e-08 0)
(-4.28131e-07 3.07842e-08 0)
(-4.30722e-07 2.9328e-08 0)
(-4.33144e-07 2.78796e-08 0)
(-4.35401e-07 2.64397e-08 0)
(-4.37498e-07 2.50088e-08 0)
(-4.39437e-07 2.35874e-08 0)
(-4.41224e-07 2.21758e-08 0)
(-4.42861e-07 2.07747e-08 0)
(-4.44352e-07 1.93844e-08 0)
(-4.45702e-07 1.80053e-08 0)
(-4.46913e-07 1.66378e-08 0)
(-4.47991e-07 1.52821e-08 0)
(-4.48937e-07 1.39386e-08 0)
(-4.49757e-07 1.26076e-08 0)
(-4.50452e-07 1.12893e-08 0)
(-4.51028e-07 9.98402e-09 0)
(-4.51487e-07 8.69189e-09 0)
(-4.51833e-07 7.41312e-09 0)
(-4.5207e-07 6.1479e-09 0)
(-4.52199e-07 4.89638e-09 0)
(-4.52226e-07 3.65869e-09 0)
(-4.52152e-07 2.43495e-09 0)
(-4.51981e-07 1.22526e-09 0)
(-4.51717e-07 2.97022e-11 0)
(-4.51362e-07 -1.15165e-09 0)
(-4.50918e-07 -2.31873e-09 0)
(-4.5039e-07 -3.47152e-09 0)
(-4.4978e-07 -4.60997e-09 0)
(-4.4909e-07 -5.73407e-09 0)
(-8.17516e-09 1.10128e-07 0)
(-2.44456e-08 1.10027e-07 0)
(-4.05491e-08 1.09827e-07 0)
(-5.64713e-08 1.09531e-07 0)
(-7.21989e-08 1.09142e-07 0)
(-8.77193e-08 1.08664e-07 0)
(-1.03021e-07 1.08099e-07 0)
(-1.18093e-07 1.07449e-07 0)
(-1.32925e-07 1.06719e-07 0)
(-1.47509e-07 1.05912e-07 0)
(-1.61836e-07 1.05029e-07 0)
(-1.75897e-07 1.04075e-07 0)
(-1.89687e-07 1.03052e-07 0)
(-2.03199e-07 1.01964e-07 0)
(-2.16428e-07 1.00813e-07 0)
(-2.29368e-07 9.96021e-08 0)
(-2.42016e-07 9.83348e-08 0)
(-2.54368e-07 9.70138e-08 0)
(-2.66421e-07 9.56419e-08 0)
(-2.78173e-07 9.42219e-08 0)
(-2.89621e-07 9.27567e-08 0)
(-3.00765e-07 9.12488e-08 0)
(-3.11603e-07 8.97011e-08 0)
(-3.22136e-07 8.81161e-08 0)
(-3.32362e-07 8.64962e-08 0)
(-3.42284e-07 8.48441e-08 0)
(-3.51901e-07 8.31622e-08 0)
(-3.61215e-07 8.14527e-08 0)
(-3.70227e-07 7.9718e-08 0)
(-3.7894e-07 7.79604e-08 0)
(-3.87356e-07 7.61819e-08 0)
(-3.95477e-07 7.43846e-08 0)
(-4.03305e-07 7.25706e-08 0)
(-4.10845e-07 7.07418e-08 0)
(-4.18099e-07 6.89001e-08 0)
(-4.25071e-07 6.70473e-08 0)
(-4.31765e-07 6.51852e-08 0)
(-4.38183e-07 6.33154e-08 0)
(-4.44332e-07 6.14396e-08 0)
(-4.50213e-07 5.95592e-08 0)
(-4.55833e-07 5.76759e-08 0)
(-4.61194e-07 5.57909e-08 0)
(-4.66303e-07 5.39058e-08 0)
(-4.71163e-07 5.20216e-08 0)
(-4.75778e-07 5.01398e-08 0)
(-4.80155e-07 4.82615e-08 0)
(-4.84297e-07 4.63877e-08 0)
(-4.88209e-07 4.45196e-08 0)
(-4.91896e-07 4.26582e-08 0)
(-4.95364e-07 4.08045e-08 0)
(-4.98617e-07 3.89593e-08 0)
(-5.01659e-07 3.71234e-08 0)
(-5.04496e-07 3.52978e-08 0)
(-5.07133e-07 3.34831e-08 0)
(-5.09575e-07 3.16801e-08 0)
(-5.11825e-07 2.98895e-08 0)
(-5.13891e-07 2.81118e-08 0)
(-5.15775e-07 2.63477e-08 0)
(-5.17483e-07 2.45977e-08 0)
(-5.19019e-07 2.28623e-08 0)
(-5.20389e-07 2.11419e-08 0)
(-5.21597e-07 1.94371e-08 0)
(-5.22647e-07 1.77482e-08 0)
(-5.23544e-07 1.60755e-08 0)
(-5.24292e-07 1.44194e-08 0)
(-5.24896e-07 1.27803e-08 0)
(-5.2536e-07 1.11583e-08 0)
(-5.25689e-07 9.55375e-09 0)
(-5.25885e-07 7.96684e-09 0)
(-5.25955e-07 6.39777e-09 0)
(-5.25901e-07 4.84671e-09 0)
(-5.25728e-07 3.3138e-09 0)
(-5.25439e-07 1.79916e-09 0)
(-5.25039e-07 3.029e-10 0)
(-5.24531e-07 -1.1749e-09 0)
(-5.23918e-07 -2.63417e-09 0)
(-5.23205e-07 -4.07488e-09 0)
(-5.22395e-07 -5.49699e-09 0)
(-5.21491e-07 -6.90049e-09 0)
(-5.20496e-07 -8.28539e-09 0)
(-9.82271e-09 1.36107e-07 0)
(-2.93717e-08 1.35977e-07 0)
(-4.87184e-08 1.35723e-07 0)
(-6.78447e-08 1.35346e-07 0)
(-8.67336e-08 1.34851e-07 0)
(-1.05369e-07 1.34242e-07 0)
(-1.23737e-07 1.33522e-07 0)
(-1.41823e-07 1.32695e-07 0)
(-1.59614e-07 1.31766e-07 0)
(-1.771e-07 1.30737e-07 0)
(-1.94268e-07 1.29614e-07 0)
(-2.11111e-07 1.284e-07 0)
(-2.27618e-07 1.27099e-07 0)
(-2.43782e-07 1.25715e-07 0)
(-2.59596e-07 1.24252e-07 0)
(-2.75054e-07 1.22714e-07 0)
(-2.90152e-07 1.21104e-07 0)
(-3.04883e-07 1.19426e-07 0)
(-3.19246e-07 1.17684e-07 0)
(-3.33236e-07 1.15882e-07 0)
(-3.46852e-07 1.14023e-07 0)
(-3.60091e-07 1.12111e-07 0)
(-3.72954e-07 1.10149e-07 0)
(-3.85439e-07 1.08141e-07 0)
(-3.97547e-07 1.0609e-07 0)
(-4.09279e-07 1.03998e-07 0)
(-4.20636e-07 1.0187e-07 0)
(-4.31619e-07 9.97086e-08 0)
(-4.42231e-07 9.7516e-08 0)
(-4.52474e-07 9.52954e-08 0)
(-4.62352e-07 9.30497e-08 0)
(-4.71867e-07 9.07816e-08 0)
(-4.81024e-07 8.84936e-08 0)
(-4.89826e-07 8.61883e-08 0)
(-4.98278e-07 8.3868e-08 0)
(-5.06385e-07 8.15351e-08 0)
(-5.1415e-07 7.91918e-08 0)
(-5.21579e-07 7.68403e-08 0)
(-5.28678e-07 7.44826e-08 0)
(-5.35451e-07 7.21208e-08 0)
(-5.41905e-07 6.97567e-08 0)
(-5.48044e-07 6.7392e-08 0)
(-5.53875e-07 6.50287e-08 0)
(-5.59404e-07 6.26682e-08 0)
(-5.64637e-07 6.03121e-08 0)
(-5.69579e-07 5.7962e-08 0)
(-5.74237e-07 5.56193e-08 0)
(-5.78617e-07 5.32852e-08 0)
(-5.82725e-07 5.09611e-08 0)
(-5.86568e-07 4.86482e-08 0)
(-5.90151e-07 4.63476e-08 0)
(-5.93482e-07 4.40603e-08 0)
(-5.96566e-07 4.17874e-08 0)
(-5.99409e-07 3.95297e-08 0)
(-6.02018e-07 3.72882e-08 0)
(-6.04398e-07 3.50638e-08 0)
(-6.06557e-07 3.28571e-08 0)
(-6.085e-07 3.06688e-08 0)
(-6.10232e-07 2.84997e-08 0)
(-6.11761e-07 2.63503e-08 0)
(-6.13091e-07 2.42212e-08 0)
(-6.14229e-07 2.2113e-08 0)
(-6.15181e-07 2.0026e-08 0)
(-6.15951e-07 1.79607e-08 0)
(-6.16546e-07 1.59175e-08 0)
(-6.16971e-07 1.38967e-08 0)
(-6.17232e-07 1.18987e-08 0)
(-6.17334e-07 9.92372e-09 0)
(-6.17281e-07 7.97199e-09 0)
(-6.1708e-07 6.04373e-09 0)
(-6.16734e-07 4.13912e-09 0)
(-6.1625e-07 2.2583e-09 0)
(-6.15632e-07 4.01384e-10 0)
(-6.14884e-07 -1.43153e-09 0)
(-6.14011e-07 -3.24038e-09 0)
(-6.13018e-07 -5.02512e-09 0)
(-6.1191e-07 -6.78573e-09 0)
(-6.10689e-07 -8.52221e-09 0)
(-6.09362e-07 -1.02346e-08 0)
(-6.07931e-07 -1.19229e-08 0)
(-1.19203e-08 1.67491e-07 0)
(-3.5643e-08 1.67326e-07 0)
(-5.91181e-08 1.67002e-07 0)
(-8.23223e-08 1.66522e-07 0)
(-1.05234e-07 1.65891e-07 0)
(-1.27832e-07 1.65115e-07 0)
(-1.50097e-07 1.64198e-07 0)
(-1.72013e-07 1.63145e-07 0)
(-1.93563e-07 1.61962e-07 0)
(-2.14731e-07 1.60653e-07 0)
(-2.35504e-07 1.59224e-07 0)
(-2.5587e-07 1.57679e-07 0)
(-2.75818e-07 1.56024e-07 0)
(-2.95337e-07 1.54264e-07 0)
(-3.14419e-07 1.52404e-07 0)
(-3.33055e-07 1.50449e-07 0)
(-3.51241e-07 1.48404e-07 0)
(-3.68969e-07 1.46274e-07 0)
(-3.86235e-07 1.44064e-07 0)
(-4.03036e-07 1.41777e-07 0)
(-4.19369e-07 1.3942e-07 0)
(-4.35231e-07 1.36996e-07 0)
(-4.50623e-07 1.34511e-07 0)
(-4.65543e-07 1.31968e-07 0)
(-4.79992e-07 1.29371e-07 0)
(-4.93971e-07 1.26726e-07 0)
(-5.07482e-07 1.24035e-07 0)
(-5.20528e-07 1.21303e-07 0)
(-5.33111e-07 1.18534e-07 0)
(-5.45235e-07 1.15732e-07 0)
(-5.56903e-07 1.12899e-07 0)
(-5.68121e-07 1.10039e-07 0)
(-5.78894e-07 1.07157e-07 0)
(-5.89226e-07 1.04254e-07 0)
(-5.99123e-07 1.01335e-07 0)
(-6.08592e-07 9.84015e-08 0)
(-6.17639e-07 9.54571e-08 0)
(-6.2627e-07 9.25043e-08 0)
(-6.34492e-07 8.9546e-08 0)
(-6.42312e-07 8.65845e-08 0)
(-6.49738e-07 8.36223e-08 0)
(-6.56777e-07 8.06617e-08 0)
(-6.63437e-07 7.77048e-08 0)
(-6.69724e-07 7.47538e-08 0)
(-6.75648e-07 7.18106e-08 0)
(-6.81216e-07 6.88772e-08 0)
(-6.86436e-07 6.59552e-08 0)
(-6.91316e-07 6.30464e-08 0)
(-6.95864e-07 6.01524e-08 0)
(-7.00089e-07 5.72746e-08 0)
(-7.03997e-07 5.44145e-08 0)
(-7.07598e-07 5.15733e-08 0)
(-7.10899e-07 4.87524e-08 0)
(-7.13908e-07 4.59528e-08 0)
(-7.16634e-07 4.31757e-08 0)
(-7.19084e-07 4.0422e-08 0)
(-7.21266e-07 3.76927e-08 0)
(-7.23188e-07 3.49886e-08 0)
(-7.24858e-07 3.23106e-08 0)
(-7.26283e-07 2.96592e-08 0)
(-7.2747e-07 2.70353e-08 0)
(-7.28427e-07 2.44394e-08 0)
(-7.29162e-07 2.1872e-08 0)
(-7.29681e-07 1.93337e-08 0)
(-7.29992e-07 1.68249e-08 0)
(-7.30101e-07 1.43459e-08 0)
(-7.30016e-07 1.18971e-08 0)
(-7.29742e-07 9.47877e-09 0)
(-7.29288e-07 7.09121e-09 0)
(-7.28658e-07 4.73459e-09 0)
(-7.2786e-07 2.40909e-09 0)
(-7.26899e-07 1.14826e-10 0)
(-7.25782e-07 -2.14809e-09 0)
(-7.24514e-07 -4.37961e-09 0)
(-7.23102e-07 -6.5797e-09 0)
(-7.2155e-07 -8.74837e-09 0)
(-7.19865e-07 -1.08856e-08 0)
(-7.18052e-07 -1.29916e-08 0)
(-7.16115e-07 -1.50662e-08 0)
(-7.14061e-07 -1.71097e-08 0)
(-1.4595e-08 2.05764e-07 0)
(-4.36398e-08 2.05553e-07 0)
(-7.23784e-08 2.05138e-07 0)
(-1.00781e-07 2.04525e-07 0)
(-1.28818e-07 2.03719e-07 0)
(-1.56463e-07 2.02728e-07 0)
(-1.83692e-07 2.01556e-07 0)
(-2.10481e-07 2.00212e-07 0)
(-2.36809e-07 1.98701e-07 0)
(-2.62658e-07 1.97031e-07 0)
(-2.88008e-07 1.95207e-07 0)
(-3.12845e-07 1.93236e-07 0)
(-3.37153e-07 1.91126e-07 0)
(-3.60919e-07 1.88882e-07 0)
(-3.84133e-07 1.86512e-07 0)
(-4.06785e-07 1.84021e-07 0)
(-4.28865e-07 1.81417e-07 0)
(-4.50367e-07 1.78705e-07 0)
(-4.71285e-07 1.75892e-07 0)
(-4.91614e-07 1.72985e-07 0)
(-5.11352e-07 1.69989e-07 0)
(-5.30495e-07 1.66909e-07 0)
(-5.49042e-07 1.63753e-07 0)
(-5.66994e-07 1.60526e-07 0)
(-5.84352e-07 1.57232e-07 0)
(-6.01116e-07 1.53879e-07 0)
(-6.17289e-07 1.5047e-07 0)
(-6.32876e-07 1.47011e-07 0)
(-6.47879e-07 1.43507e-07 0)
(-6.62305e-07 1.39963e-07 0)
(-6.76158e-07 1.36384e-07 0)
(-6.89444e-07 1.32773e-07 0)
(-7.0217e-07 1.29136e-07 0)
(-7.14344e-07 1.25476e-07 0)
(-7.25972e-07 1.21797e-07 0)
(-7.37064e-07 1.18104e-07 0)
(-7.47627e-07 1.14399e-07 0)
(-7.5767e-07 1.10688e-07 0)
(-7.67203e-07 1.06971e-07 0)
(-7.76234e-07 1.03254e-07 0)
(-7.84774e-07 9.95396e-08 0)
(-7.92832e-07 9.58299e-08 0)
(-8.00418e-07 9.2128e-08 0)
(-8.07543e-07 8.84367e-08 0)
(-8.14217e-07 8.47584e-08 0)
(-8.2045e-07 8.10955e-08 0)
(-8.26252e-07 7.74502e-08 0)
(-8.31635e-07 7.38247e-08 0)
(-8.36609e-07 7.02209e-08 0)
(-8.41184e-07 6.66408e-08 0)
(-8.45371e-07 6.30859e-08 0)
(-8.4918e-07 5.95581e-08 0)
(-8.52623e-07 5.60588e-08 0)
(-8.55709e-07 5.25894e-08 0)
(-8.58449e-07 4.91512e-08 0)
(-8.60853e-07 4.57455e-08 0)
(-8.62931e-07 4.23734e-08 0)
(-8.64693e-07 3.90358e-08 0)
(-8.6615e-07 3.57338e-08 0)
(-8.6731e-07 3.24682e-08 0)
(-8.68185e-07 2.92397e-08 0)
(-8.68783e-07 2.60491e-08 0)
(-8.69113e-07 2.28969e-08 0)
(-8.69185e-07 1.97838e-08 0)
(-8.69009e-07 1.67101e-08 0)
(-8.68592e-07 1.36764e-08 0)
(-8.67944e-07 1.06829e-08 0)
(-8.67072e-07 7.72997e-09 0)
(-8.65987e-07 4.81785e-09 0)
(-8.64695e-07 1.9467e-09 0)
(-8.63205e-07 -8.83331e-10 0)
(-8.61524e-07 -3.67216e-09 0)
(-8.59661e-07 -6.41975e-09 0)
(-8.57622e-07 -9.12609e-09 0)
(-8.55415e-07 -1.17912e-08 0)
(-8.53047e-07 -1.44152e-08 0)
(-8.50525e-07 -1.69982e-08 0)
(-8.47856e-07 -1.95404e-08 0)
(-8.45046e-07 -2.20418e-08 0)
(-8.42102e-07 -2.45028e-08 0)
(-1.8019e-08 2.52839e-07 0)
(-5.38762e-08 2.52569e-07 0)
(-8.93514e-08 2.52037e-07 0)
(-1.24405e-07 2.51249e-07 0)
(-1.58998e-07 2.50215e-07 0)
(-1.93097e-07 2.48942e-07 0)
(-2.26668e-07 2.47439e-07 0)
(-2.59682e-07 2.45714e-07 0)
(-2.9211e-07 2.43776e-07 0)
(-3.23927e-07 2.41633e-07 0)
(-3.55109e-07 2.39295e-07 0)
(-3.85636e-07 2.36769e-07 0)
(-4.15489e-07 2.34065e-07 0)
(-4.4465e-07 2.31192e-07 0)
(-4.73105e-07 2.28157e-07 0)
(-5.00841e-07 2.2497e-07 0)
(-5.27848e-07 2.21638e-07 0)
(-5.54115e-07 2.18171e-07 0)
(-5.79636e-07 2.14577e-07 0)
(-6.04404e-07 2.10863e-07 0)
(-6.28416e-07 2.07038e-07 0)
(-6.51668e-07 2.03109e-07 0)
(-6.7416e-07 1.99084e-07 0)
(-6.95892e-07 1.94971e-07 0)
(-7.16864e-07 1.90777e-07 0)
(-7.37081e-07 1.86508e-07 0)
(-7.56544e-07 1.82173e-07 0)
(-7.75259e-07 1.77776e-07 0)
(-7.93232e-07 1.73326e-07 0)
(-8.1047e-07 1.68828e-07 0)
(-8.2698e-07 1.64288e-07 0)
(-8.42769e-07 1.59712e-07 0)
(-8.57849e-07 1.55105e-07 0)
(-8.72227e-07 1.50474e-07 0)
(-8.85915e-07 1.45823e-07 0)
(-8.98924e-07 1.41157e-07 0)
(-9.11264e-07 1.36482e-07 0)
(-9.22948e-07 1.318e-07 0)
(-9.33988e-07 1.27118e-07 0)
(-9.44397e-07 1.22439e-07 0)
(-9.54187e-07 1.17767e-07 0)
(-9.63372e-07 1.13106e-07 0)
(-9.71964e-07 1.08459e-07 0)
(-9.79979e-07 1.0383e-07 0)
(-9.87429e-07 9.92215e-08 0)
(-9.94328e-07 9.46371e-08 0)
(-1.00069e-06 9.00795e-08 0)
(-1.00653e-06 8.55512e-08 0)
(-1.01186e-06 8.10548e-08 0)
(-1.0167e-06 7.65927e-08 0)
(-1.02105e-06 7.21669e-08 0)
(-1.02494e-06 6.77796e-08 0)
(-1.02838e-06 6.34325e-08 0)
(-1.03137e-06 5.91274e-08 0)
(-1.03394e-06 5.4866e-08 0)
(-1.0361e-06 5.06496e-08 0)
(-1.03786e-06 4.64797e-08 0)
(-1.03924e-06 4.23575e-08 0)
(-1.04024e-06 3.82839e-08 0)
(-1.04088e-06 3.42602e-08 0)
(-1.04117e-06 3.0287e-08 0)
(-1.04113e-06 2.63653e-08 0)
(-1.04077e-06 2.24957e-08 0)
(-1.04009e-06 1.86788e-08 0)
(-1.03912e-06 1.49151e-08 0)
(-1.03786e-06 1.1205e-08 0)
(-1.03632e-06 7.54888e-09 0)
(-1.03452e-06 3.947e-09 0)
(-1.03247e-06 3.99562e-10 0)
(-1.03017e-06 -3.09332e-09 0)
(-1.02763e-06 -6.53158e-09 0)
(-1.02488e-06 -9.91521e-09 0)
(-1.02191e-06 -1.32443e-08 0)
(-1.01873e-06 -1.65189e-08 0)
(-1.01536e-06 -1.97392e-08 0)
(-1.01181e-06 -2.29054e-08 0)
(-1.00808e-06 -2.60177e-08 0)
(-1.00418e-06 -2.90765e-08 0)
(-1.00012e-06 -3.20821e-08 0)
(-9.95902e-07 -3.50348e-08 0)
(-2.24261e-08 3.11219e-07 0)
(-6.70515e-08 3.1087e-07 0)
(-1.11196e-07 3.10181e-07 0)
(-1.54806e-07 3.09164e-07 0)
(-1.97832e-07 3.07828e-07 0)
(-2.40226e-07 3.06184e-07 0)
(-2.81946e-07 3.04244e-07 0)
(-3.22952e-07 3.02017e-07 0)
(-3.63206e-07 2.99516e-07 0)
(-4.02674e-07 2.96751e-07 0)
(-4.41325e-07 2.93735e-07 0)
(-4.79132e-07 2.90478e-07 0)
(-5.1607e-07 2.86993e-07 0)
(-5.52116e-07 2.83291e-07 0)
(-5.8725e-07 2.79382e-07 0)
(-6.21457e-07 2.75279e-07 0)
(-6.54721e-07 2.70993e-07 0)
(-6.87031e-07 2.66534e-07 0)
(-7.18376e-07 2.61913e-07 0)
(-7.48751e-07 2.57142e-07 0)
(-7.78149e-07 2.52231e-07 0)
(-8.06566e-07 2.4719e-07 0)
(-8.34003e-07 2.42028e-07 0)
(-8.60459e-07 2.36757e-07 0)
(-8.85937e-07 2.31385e-07 0)
(-9.1044e-07 2.25922e-07 0)
(-9.33974e-07 2.20378e-07 0)
(-9.56546e-07 2.14759e-07 0)
(-9.78163e-07 2.09076e-07 0)
(-9.98835e-07 2.03337e-07 0)
(-1.01857e-06 1.97548e-07 0)
(-1.03739e-06 1.91719e-07 0)
(-1.05529e-06 1.85856e-07 0)
(-1.0723e-06 1.79967e-07 0)
(-1.08842e-06 1.74057e-07 0)
(-1.10367e-06 1.68135e-07 0)
(-1.11808e-06 1.62205e-07 0)
(-1.13164e-06 1.56274e-07 0)
(-1.14439e-06 1.50348e-07 0)
(-1.15633e-06 1.44432e-07 0)
(-1.16749e-06 1.3853e-07 0)
(-1.17788e-06 1.32648e-07 0)
(-1.18752e-06 1.26791e-07 0)
(-1.19643e-06 1.20962e-07 0)
(-1.20463e-06 1.15165e-07 0)
(-1.21213e-06 1.09406e-07 0)
(-1.21896e-06 1.03686e-07 0)
(-1.22513e-06 9.80103e-08 0)
(-1.23066e-06 9.23808e-08 0)
(-1.23558e-06 8.68009e-08 0)
(-1.23989e-06 8.12732e-08 0)
(-1.24362e-06 7.58003e-08 0)
(-1.24679e-06 7.03844e-08 0)
(-1.24942e-06 6.50278e-08 0)