/*--------------------------------*- C++ -*----------------------------------*\
  =========                 |
  \\      /  F ield         | OpenFOAM: The Open Source CFD Toolbox
   \\    /   O peration     | Website:  https://openfoam.org
    \\  /    A nd           | Version:  8
     \\/     M anipulation  |
\*---------------------------------------------------------------------------*/
FoamFile
{
    version     2.0;
    format      ascii;
    class       volVectorField;
    location    "3000";
    object      Ub;
}
// * * * * * * * * * * * * * * * * * * * * * * * * * * * * * * * * * * * * * //

dimensions      [0 1 -1 0 0 0 0];

internalField   nonuniform List<vector> 
12800
(
(-6.60184e-20 -4.92996e-13 0)
(-1.97424e-19 -4.92996e-13 0)
(-3.27521e-19 -4.92996e-13 0)
(-4.56218e-19 -4.92996e-13 0)
(-5.83431e-19 -4.92996e-13 0)
(-7.09081e-19 -4.92996e-13 0)
(-8.33094e-19 -4.92996e-13 0)
(-9.554e-19 -4.92996e-13 0)
(-1.07594e-18 -4.92996e-13 0)
(-1.19464e-18 -4.92996e-13 0)
(-1.31147e-18 -4.92996e-13 0)
(-1.42636e-18 -4.92996e-13 0)
(-1.53927e-18 -4.92996e-13 0)
(-1.65017e-18 -4.92996e-13 0)
(-1.75901e-18 -4.92996e-13 0)
(-1.86576e-18 -4.92996e-13 0)
(-1.9704e-18 -4.92996e-13 0)
(-2.0729e-18 -4.92996e-13 0)
(-2.17323e-18 -4.92996e-13 0)
(-2.27139e-18 -4.92996e-13 0)
(-2.36735e-18 -4.92996e-13 0)
(-2.4611e-18 -4.92996e-13 0)
(-2.55264e-18 -4.92996e-13 0)
(-2.64196e-18 -4.92996e-13 0)
(-2.72906e-18 -4.92996e-13 0)
(-2.81393e-18 -4.92996e-13 0)
(-2.89659e-18 -4.92996e-13 0)
(-2.97703e-18 -4.92996e-13 0)
(-3.05526e-18 -4.92996e-13 0)
(-3.13129e-18 -4.92996e-13 0)
(-3.20513e-18 -4.92996e-13 0)
(-3.2768e-18 -4.92996e-13 0)
(-3.3463e-18 -4.92996e-13 0)
(-3.41366e-18 -4.92996e-13 0)
(-3.4789e-18 -4.92996e-13 0)
(-3.54202e-18 -4.92996e-13 0)
(-3.60305e-18 -4.92996e-13 0)
(-3.66202e-18 -4.92996e-13 0)
(-3.71895e-18 -4.92996e-13 0)
(-3.77385e-18 -4.92996e-13 0)
(-3.82676e-18 -4.92996e-13 0)
(-3.8777e-18 -4.92996e-13 0)
(-3.9267e-18 -4.92996e-13 0)
(-3.97378e-18 -4.92996e-13 0)
(-4.01898e-18 -4.92996e-13 0)
(-4.06231e-18 -4.92996e-13 0)
(-4.10381e-18 -4.92996e-13 0)
(-4.14352e-18 -4.92996e-13 0)
(-4.18145e-18 -4.92996e-13 0)
(-4.21764e-18 -4.92996e-13 0)
(-4.25212e-18 -4.92996e-13 0)
(-4.28492e-18 -4.92996e-13 0)
(-4.31607e-18 -4.92996e-13 0)
(-4.34561e-18 -4.92996e-13 0)
(-4.37355e-18 -4.92996e-13 0)
(-4.39994e-18 -4.92996e-13 0)
(-4.42481e-18 -4.92996e-13 0)
(-4.44818e-18 -4.92996e-13 0)
(-4.47009e-18 -4.92996e-13 0)
(-4.49057e-18 -4.92996e-13 0)
(-4.50965e-18 -4.92996e-13 0)
(-4.52735e-18 -4.92996e-13 0)
(-4.54372e-18 -4.92996e-13 0)
(-4.55878e-18 -4.92996e-13 0)
(-4.57257e-18 -4.92996e-13 0)
(-4.5851e-18 -4.92996e-13 0)
(-4.59641e-18 -4.92996e-13 0)
(-4.60654e-18 -4.92996e-13 0)
(-4.6155e-18 -4.92996e-13 0)
(-4.62333e-18 -4.92996e-13 0)
(-4.63006e-18 -4.92996e-13 0)
(-4.63571e-18 -4.92996e-13 0)
(-4.64032e-18 -4.92996e-13 0)
(-4.64391e-18 -4.92996e-13 0)
(-4.6465e-18 -4.92996e-13 0)
(-4.64813e-18 -4.92996e-13 0)
(-4.64881e-18 -4.92996e-13 0)
(-4.64858e-18 -4.92996e-13 0)
(-4.64747e-18 -4.92996e-13 0)
(-4.64527e-18 -4.92996e-13 0)
(-6.83092e-20 -4.92961e-13 0)
(-2.04274e-19 -4.92961e-13 0)
(-3.38883e-19 -4.92961e-13 0)
(-4.72041e-19 -4.92961e-13 0)
(-6.0366e-19 -4.92961e-13 0)
(-7.33657e-19 -4.92961e-13 0)
(-8.61955e-19 -4.92961e-13 0)
(-9.8848e-19 -4.92961e-13 0)
(-1.11317e-18 -4.92961e-13 0)
(-1.23596e-18 -4.92961e-13 0)
(-1.35679e-18 -4.92961e-13 0)
(-1.47561e-18 -4.92961e-13 0)
(-1.59238e-18 -4.92961e-13 0)
(-1.70705e-18 -4.92961e-13 0)
(-1.81958e-18 -4.92961e-13 0)
(-1.92994e-18 -4.92961e-13 0)
(-2.03811e-18 -4.92961e-13 0)
(-2.14405e-18 -4.92961e-13 0)
(-2.24774e-18 -4.92961e-13 0)
(-2.34916e-18 -4.92961e-13 0)
(-2.44831e-18 -4.92961e-13 0)
(-2.54516e-18 -4.92961e-13 0)
(-2.63971e-18 -4.92961e-13 0)
(-2.73195e-18 -4.92961e-13 0)
(-2.82188e-18 -4.92961e-13 0)
(-2.9095e-18 -4.92961e-13 0)
(-2.99482e-18 -4.92961e-13 0)
(-3.07783e-18 -4.92961e-13 0)
(-3.15855e-18 -4.92961e-13 0)
(-3.23698e-18 -4.92961e-13 0)
(-3.31314e-18 -4.92961e-13 0)
(-3.38704e-18 -4.92961e-13 0)
(-3.45869e-18 -4.92961e-13 0)
(-3.52812e-18 -4.92961e-13 0)
(-3.59534e-18 -4.92961e-13 0)
(-3.66037e-18 -4.92961e-13 0)
(-3.72323e-18 -4.92961e-13 0)
(-3.78395e-18 -4.92961e-13 0)
(-3.84254e-18 -4.92961e-13 0)
(-3.89904e-18 -4.92961e-13 0)
(-3.95347e-18 -4.92961e-13 0)
(-4.00586e-18 -4.92961e-13 0)
(-4.05624e-18 -4.92961e-13 0)
(-4.10462e-18 -4.92961e-13 0)
(-4.15105e-18 -4.92961e-13 0)
(-4.19556e-18 -4.92961e-13 0)
(-4.23816e-18 -4.92961e-13 0)
(-4.27891e-18 -4.92961e-13 0)
(-4.31781e-18 -4.92961e-13 0)
(-4.35492e-18 -4.92961e-13 0)
(-4.39025e-18 -4.92961e-13 0)
(-4.42384e-18 -4.92961e-13 0)
(-4.45573e-18 -4.92961e-13 0)
(-4.48594e-18 -4.92961e-13 0)
(-4.51451e-18 -4.92961e-13 0)
(-4.54147e-18 -4.92961e-13 0)
(-4.56686e-18 -4.92961e-13 0)
(-4.5907e-18 -4.92961e-13 0)
(-4.61303e-18 -4.92961e-13 0)
(-4.63388e-18 -4.92961e-13 0)
(-4.65328e-18 -4.92961e-13 0)
(-4.67127e-18 -4.92961e-13 0)
(-4.68788e-18 -4.92961e-13 0)
(-4.70313e-18 -4.92961e-13 0)
(-4.71707e-18 -4.92961e-13 0)
(-4.72971e-18 -4.92961e-13 0)
(-4.7411e-18 -4.92961e-13 0)
(-4.75126e-18 -4.92961e-13 0)
(-4.76023e-18 -4.92961e-13 0)
(-4.76802e-18 -4.92961e-13 0)
(-4.77468e-18 -4.92961e-13 0)
(-4.78024e-18 -4.92961e-13 0)
(-4.78471e-18 -4.92961e-13 0)
(-4.78813e-18 -4.92961e-13 0)
(-4.79053e-18 -4.92961e-13 0)
(-4.79194e-18 -4.92961e-13 0)
(-4.79238e-18 -4.92961e-13 0)
(-4.79187e-18 -4.92961e-13 0)
(-4.79046e-18 -4.92961e-13 0)
(-4.78815e-18 -4.92961e-13 0)
(-7.30136e-20 -4.92961e-13 0)
(-2.18341e-19 -4.92961e-13 0)
(-3.62215e-19 -4.92961e-13 0)
(-5.04534e-19 -4.92961e-13 0)
(-6.45199e-19 -4.92961e-13 0)
(-7.84122e-19 -4.92961e-13 0)
(-9.21216e-19 -4.92961e-13 0)
(-1.0564e-18 -4.92961e-13 0)
(-1.18961e-18 -4.92961e-13 0)
(-1.32077e-18 -4.92961e-13 0)
(-1.44983e-18 -4.92961e-13 0)
(-1.57672e-18 -4.92961e-13 0)
(-1.70139e-18 -4.92961e-13 0)
(-1.8238e-18 -4.92961e-13 0)
(-1.94391e-18 -4.92961e-13 0)
(-2.06168e-18 -4.92961e-13 0)
(-2.17708e-18 -4.92961e-13 0)
(-2.29007e-18 -4.92961e-13 0)
(-2.40064e-18 -4.92961e-13 0)
(-2.50877e-18 -4.92961e-13 0)
(-2.61444e-18 -4.92961e-13 0)
(-2.71763e-18 -4.92961e-13 0)
(-2.81834e-18 -4.92961e-13 0)
(-2.91656e-18 -4.92961e-13 0)
(-3.0123e-18 -4.92961e-13 0)
(-3.10554e-18 -4.92961e-13 0)
(-3.1963e-18 -4.92961e-13 0)
(-3.28457e-18 -4.92961e-13 0)
(-3.37037e-18 -4.92961e-13 0)
(-3.45371e-18 -4.92961e-13 0)
(-3.53461e-18 -4.92961e-13 0)
(-3.61306e-18 -4.92961e-13 0)
(-3.68911e-18 -4.92961e-13 0)
(-3.76275e-18 -4.92961e-13 0)
(-3.83402e-18 -4.92961e-13 0)
(-3.90293e-18 -4.92961e-13 0)
(-3.96951e-18 -4.92961e-13 0)
(-4.03379e-18 -4.92961e-13 0)
(-4.09578e-18 -4.92961e-13 0)
(-4.15553e-18 -4.92961e-13 0)
(-4.21305e-18 -4.92961e-13 0)
(-4.26838e-18 -4.92961e-13 0)
(-4.32155e-18 -4.92961e-13 0)
(-4.37258e-18 -4.92961e-13 0)
(-4.42152e-18 -4.92961e-13 0)
(-4.46839e-18 -4.92961e-13 0)
(-4.51323e-18 -4.92961e-13 0)
(-4.55607e-18 -4.92961e-13 0)
(-4.59694e-18 -4.92961e-13 0)
(-4.63588e-18 -4.92961e-13 0)
(-4.67293e-18 -4.92961e-13 0)
(-4.70812e-18 -4.92961e-13 0)
(-4.74148e-18 -4.92961e-13 0)
(-4.77305e-18 -4.92961e-13 0)
(-4.80287e-18 -4.92961e-13 0)
(-4.83097e-18 -4.92961e-13 0)
(-4.85738e-18 -4.92961e-13 0)
(-4.88215e-18 -4.92961e-13 0)
(-4.90531e-18 -4.92961e-13 0)
(-4.92689e-18 -4.92961e-13 0)
(-4.94692e-18 -4.92961e-13 0)
(-4.96545e-18 -4.92961e-13 0)
(-4.98251e-18 -4.92961e-13 0)
(-4.99813e-18 -4.92961e-13 0)
(-5.01235e-18 -4.92961e-13 0)
(-5.02519e-18 -4.92961e-13 0)
(-5.0367e-18 -4.92961e-13 0)
(-5.0469e-18 -4.92961e-13 0)
(-5.05584e-18 -4.92961e-13 0)
(-5.06353e-18 -4.92961e-13 0)
(-5.07002e-18 -4.92961e-13 0)
(-5.07534e-18 -4.92961e-13 0)
(-5.07951e-18 -4.92961e-13 0)
(-5.08257e-18 -4.92961e-13 0)
(-5.08455e-18 -4.92961e-13 0)
(-5.08547e-18 -4.92961e-13 0)
(-5.08537e-18 -4.92961e-13 0)
(-5.08428e-18 -4.92961e-13 0)
(-5.08222e-18 -4.92961e-13 0)
(-5.07922e-18 -4.92961e-13 0)
(-8.03372e-20 -4.92961e-13 0)
(-2.4024e-19 -4.92961e-13 0)
(-3.98538e-19 -4.92961e-13 0)
(-5.55115e-19 -4.92961e-13 0)
(-7.09862e-19 -4.92961e-13 0)
(-8.62675e-19 -4.92961e-13 0)
(-1.01346e-18 -4.92961e-13 0)
(-1.16212e-18 -4.92961e-13 0)
(-1.30859e-18 -4.92961e-13 0)
(-1.45278e-18 -4.92961e-13 0)
(-1.59462e-18 -4.92961e-13 0)
(-1.73405e-18 -4.92961e-13 0)
(-1.87102e-18 -4.92961e-13 0)
(-2.00546e-18 -4.92961e-13 0)
(-2.13734e-18 -4.92961e-13 0)
(-2.2666e-18 -4.92961e-13 0)
(-2.39323e-18 -4.92961e-13 0)
(-2.51718e-18 -4.92961e-13 0)
(-2.63842e-18 -4.92961e-13 0)
(-2.75694e-18 -4.92961e-13 0)
(-2.87272e-18 -4.92961e-13 0)
(-2.98574e-18 -4.92961e-13 0)
(-3.096e-18 -4.92961e-13 0)
(-3.20348e-18 -4.92961e-13 0)
(-3.30819e-18 -4.92961e-13 0)
(-3.41012e-18 -4.92961e-13 0)
(-3.50929e-18 -4.92961e-13 0)
(-3.60569e-18 -4.92961e-13 0)
(-3.69934e-18 -4.92961e-13 0)
(-3.79025e-18 -4.92961e-13 0)
(-3.87844e-18 -4.92961e-13 0)
(-3.96392e-18 -4.92961e-13 0)
(-4.04672e-18 -4.92961e-13 0)
(-4.12685e-18 -4.92961e-13 0)
(-4.20434e-18 -4.92961e-13 0)
(-4.27921e-18 -4.92961e-13 0)
(-4.3515e-18 -4.92961e-13 0)
(-4.42123e-18 -4.92961e-13 0)
(-4.48844e-18 -4.92961e-13 0)
(-4.55314e-18 -4.92961e-13 0)
(-4.61539e-18 -4.92961e-13 0)
(-4.6752e-18 -4.92961e-13 0)
(-4.73262e-18 -4.92961e-13 0)
(-4.78769e-18 -4.92961e-13 0)
(-4.84043e-18 -4.92961e-13 0)
(-4.89089e-18 -4.92961e-13 0)
(-4.9391e-18 -4.92961e-13 0)
(-4.9851e-18 -4.92961e-13 0)
(-5.02894e-18 -4.92961e-13 0)
(-5.07065e-18 -4.92961e-13 0)
(-5.11026e-18 -4.92961e-13 0)
(-5.14783e-18 -4.92961e-13 0)
(-5.18339e-18 -4.92961e-13 0)
(-5.21698e-18 -4.92961e-13 0)
(-5.24864e-18 -4.92961e-13 0)
(-5.27841e-18 -4.92961e-13 0)
(-5.30634e-18 -4.92961e-13 0)
(-5.33245e-18 -4.92961e-13 0)
(-5.3568e-18 -4.92961e-13 0)
(-5.37941e-18 -4.92961e-13 0)
(-5.40034e-18 -4.92961e-13 0)
(-5.41962e-18 -4.92961e-13 0)
(-5.43728e-18 -4.92961e-13 0)
(-5.45338e-18 -4.92961e-13 0)
(-5.46793e-18 -4.92961e-13 0)
(-5.481e-18 -4.92961e-13 0)
(-5.4926e-18 -4.92961e-13 0)
(-5.50279e-18 -4.92961e-13 0)
(-5.51158e-18 -4.92961e-13 0)
(-5.51904e-18 -4.92961e-13 0)
(-5.52517e-18 -4.92961e-13 0)
(-5.53003e-18 -4.92961e-13 0)
(-5.53365e-18 -4.92961e-13 0)
(-5.53606e-18 -4.92961e-13 0)
(-5.5373e-18 -4.92961e-13 0)
(-5.5374e-18 -4.92961e-13 0)
(-5.53638e-18 -4.92961e-13 0)
(-5.5343e-18 -4.92961e-13 0)
(-5.53116e-18 -4.92961e-13 0)
(-5.52702e-18 -4.92961e-13 0)
(-9.06221e-20 -4.9296e-13 0)
(-2.70993e-19 -4.9296e-13 0)
(-4.49546e-19 -4.9296e-13 0)
(-6.26145e-19 -4.9296e-13 0)
(-8.00661e-19 -4.9296e-13 0)
(-9.72974e-19 -4.9296e-13 0)
(-1.14297e-18 -4.9296e-13 0)
(-1.31055e-18 -4.9296e-13 0)
(-1.47561e-18 -4.9296e-13 0)
(-1.63807e-18 -4.9296e-13 0)
(-1.79785e-18 -4.9296e-13 0)
(-1.95486e-18 -4.9296e-13 0)
(-2.10904e-18 -4.9296e-13 0)
(-2.26034e-18 -4.9296e-13 0)
(-2.4087e-18 -4.9296e-13 0)
(-2.55406e-18 -4.9296e-13 0)
(-2.69639e-18 -4.9296e-13 0)
(-2.83565e-18 -4.92961e-13 0)
(-2.97182e-18 -4.92961e-13 0)
(-3.10486e-18 -4.92961e-13 0)
(-3.23475e-18 -4.92961e-13 0)
(-3.36148e-18 -4.92961e-13 0)
(-3.48504e-18 -4.92961e-13 0)
(-3.60543e-18 -4.92961e-13 0)
(-3.72263e-18 -4.92961e-13 0)
(-3.83666e-18 -4.92961e-13 0)
(-3.94752e-18 -4.92961e-13 0)
(-4.05521e-18 -4.92961e-13 0)
(-4.15975e-18 -4.92961e-13 0)
(-4.26116e-18 -4.92961e-13 0)
(-4.35945e-18 -4.92961e-13 0)
(-4.45465e-18 -4.92961e-13 0)
(-4.54678e-18 -4.92961e-13 0)
(-4.63586e-18 -4.92961e-13 0)
(-4.72193e-18 -4.92961e-13 0)
(-4.80502e-18 -4.92961e-13 0)
(-4.88516e-18 -4.92961e-13 0)
(-4.96238e-18 -4.92961e-13 0)
(-5.03672e-18 -4.92961e-13 0)
(-5.10821e-18 -4.92961e-13 0)
(-5.17691e-18 -4.92961e-13 0)
(-5.24284e-18 -4.92961e-13 0)
(-5.30605e-18 -4.92961e-13 0)
(-5.36658e-18 -4.92961e-13 0)
(-5.42448e-18 -4.92961e-13 0)
(-5.47978e-18 -4.92961e-13 0)
(-5.53254e-18 -4.92961e-13 0)
(-5.5828e-18 -4.92961e-13 0)
(-5.63061e-18 -4.92961e-13 0)
(-5.676e-18 -4.92961e-13 0)
(-5.71903e-18 -4.92961e-13 0)
(-5.75975e-18 -4.92961e-13 0)
(-5.7982e-18 -4.92961e-13 0)
(-5.83442e-18 -4.92961e-13 0)
(-5.86848e-18 -4.92961e-13 0)
(-5.9004e-18 -4.92961e-13 0)
(-5.93024e-18 -4.92961e-13 0)
(-5.95805e-18 -4.92961e-13 0)
(-5.98388e-18 -4.92961e-13 0)
(-6.00776e-18 -4.92961e-13 0)
(-6.02974e-18 -4.92961e-13 0)
(-6.04988e-18 -4.92961e-13 0)
(-6.06821e-18 -4.92961e-13 0)
(-6.08479e-18 -4.92961e-13 0)
(-6.09965e-18 -4.92961e-13 0)
(-6.11284e-18 -4.92961e-13 0)
(-6.1244e-18 -4.92961e-13 0)
(-6.13437e-18 -4.92961e-13 0)
(-6.14281e-18 -4.92961e-13 0)
(-6.14974e-18 -4.92961e-13 0)
(-6.15521e-18 -4.92961e-13 0)
(-6.15927e-18 -4.92961e-13 0)
(-6.16195e-18 -4.92961e-13 0)
(-6.16329e-18 -4.92961e-13 0)
(-6.16333e-18 -4.92961e-13 0)
(-6.16211e-18 -4.92961e-13 0)
(-6.15966e-18 -4.92961e-13 0)
(-6.15602e-18 -4.92961e-13 0)
(-6.15124e-18 -4.92961e-13 0)
(-6.14534e-18 -4.92961e-13 0)
(-1.04362e-19 -4.9296e-13 0)
(-3.12076e-19 -4.9296e-13 0)
(-5.17686e-19 -4.9296e-13 0)
(-7.21028e-19 -4.9296e-13 0)
(-9.21946e-19 -4.9296e-13 0)
(-1.1203e-18 -4.9296e-13 0)
(-1.31595e-18 -4.9296e-13 0)
(-1.50877e-18 -4.9296e-13 0)
(-1.69864e-18 -4.9296e-13 0)
(-1.88547e-18 -4.9296e-13 0)
(-2.06915e-18 -4.9296e-13 0)
(-2.2496e-18 -4.9296e-13 0)
(-2.42673e-18 -4.9296e-13 0)
(-2.60047e-18 -4.9296e-13 0)
(-2.77075e-18 -4.9296e-13 0)
(-2.93752e-18 -4.9296e-13 0)
(-3.10074e-18 -4.9296e-13 0)
(-3.26034e-18 -4.9296e-13 0)
(-3.41631e-18 -4.9296e-13 0)
(-3.56861e-18 -4.9296e-13 0)
(-3.71722e-18 -4.9296e-13 0)
(-3.86211e-18 -4.9296e-13 0)
(-4.00328e-18 -4.9296e-13 0)
(-4.14073e-18 -4.9296e-13 0)
(-4.27444e-18 -4.9296e-13 0)
(-4.40442e-18 -4.9296e-13 0)
(-4.53069e-18 -4.9296e-13 0)
(-4.65325e-18 -4.9296e-13 0)
(-4.77211e-18 -4.9296e-13 0)
(-4.88731e-18 -4.9296e-13 0)
(-4.99886e-18 -4.9296e-13 0)
(-5.10679e-18 -4.92961e-13 0)
(-5.21112e-18 -4.92961e-13 0)
(-5.3119e-18 -4.92961e-13 0)
(-5.40916e-18 -4.92961e-13 0)
(-5.50294e-18 -4.92961e-13 0)
(-5.59327e-18 -4.92961e-13 0)
(-5.6802e-18 -4.92961e-13 0)
(-5.76377e-18 -4.92961e-13 0)
(-5.84403e-18 -4.92961e-13 0)
(-5.92104e-18 -4.92961e-13 0)
(-5.99482e-18 -4.92961e-13 0)
(-6.06545e-18 -4.92961e-13 0)
(-6.13297e-18 -4.92961e-13 0)
(-6.19742e-18 -4.92961e-13 0)
(-6.25888e-18 -4.92961e-13 0)
(-6.31738e-18 -4.92961e-13 0)
(-6.37299e-18 -4.92961e-13 0)
(-6.42575e-18 -4.92961e-13 0)
(-6.47574e-18 -4.92961e-13 0)
(-6.52299e-18 -4.92961e-13 0)
(-6.56758e-18 -4.92961e-13 0)
(-6.60955e-18 -4.92961e-13 0)
(-6.64896e-18 -4.92961e-13 0)
(-6.68587e-18 -4.92961e-13 0)
(-6.72033e-18 -4.92961e-13 0)
(-6.75241e-18 -4.92961e-13 0)
(-6.78215e-18 -4.92961e-13 0)
(-6.80962e-18 -4.92961e-13 0)
(-6.83486e-18 -4.92961e-13 0)
(-6.85793e-18 -4.92961e-13 0)
(-6.87889e-18 -4.92961e-13 0)
(-6.8978e-18 -4.92961e-13 0)
(-6.91469e-18 -4.92961e-13 0)
(-6.92964e-18 -4.92961e-13 0)
(-6.94268e-18 -4.92961e-13 0)
(-6.95387e-18 -4.92961e-13 0)
(-6.96327e-18 -4.92961e-13 0)
(-6.97091e-18 -4.92961e-13 0)
(-6.97686e-18 -4.92961e-13 0)
(-6.98116e-18 -4.92961e-13 0)
(-6.98385e-18 -4.92961e-13 0)
(-6.98499e-18 -4.92961e-13 0)
(-6.98463e-18 -4.92961e-13 0)
(-6.98279e-18 -4.92961e-13 0)
(-6.97954e-18 -4.92961e-13 0)
(-6.97492e-18 -4.92961e-13 0)
(-6.96896e-18 -4.92961e-13 0)
(-6.96172e-18 -4.92961e-13 0)
(-6.95323e-18 -4.92961e-13 0)
(-1.22241e-19 -4.9296e-13 0)
(-3.65534e-19 -4.9296e-13 0)
(-6.06348e-19 -4.9296e-13 0)
(-8.44479e-19 -4.9296e-13 0)
(-1.07974e-18 -4.9296e-13 0)
(-1.31195e-18 -4.9296e-13 0)
(-1.54094e-18 -4.9296e-13 0)
(-1.76657e-18 -4.9296e-13 0)
(-1.98869e-18 -4.9296e-13 0)
(-2.20717e-18 -4.9296e-13 0)
(-2.42188e-18 -4.9296e-13 0)
(-2.63273e-18 -4.9296e-13 0)
(-2.83961e-18 -4.9296e-13 0)
(-3.04243e-18 -4.9296e-13 0)
(-3.24111e-18 -4.9296e-13 0)
(-3.43559e-18 -4.9296e-13 0)
(-3.62581e-18 -4.9296e-13 0)
(-3.81171e-18 -4.9296e-13 0)
(-3.99325e-18 -4.9296e-13 0)
(-4.17039e-18 -4.9296e-13 0)
(-4.34311e-18 -4.9296e-13 0)
(-4.51139e-18 -4.9296e-13 0)
(-4.67521e-18 -4.9296e-13 0)
(-4.83457e-18 -4.9296e-13 0)
(-4.98946e-18 -4.9296e-13 0)
(-5.1399e-18 -4.9296e-13 0)
(-5.28588e-18 -4.9296e-13 0)
(-5.42744e-18 -4.9296e-13 0)
(-5.56459e-18 -4.9296e-13 0)
(-5.69735e-18 -4.9296e-13 0)
(-5.82576e-18 -4.9296e-13 0)
(-5.94985e-18 -4.9296e-13 0)
(-6.06966e-18 -4.9296e-13 0)
(-6.18523e-18 -4.9296e-13 0)
(-6.2966e-18 -4.9296e-13 0)
(-6.40383e-18 -4.9296e-13 0)
(-6.50697e-18 -4.9296e-13 0)
(-6.60607e-18 -4.9296e-13 0)
(-6.70118e-18 -4.9296e-13 0)
(-6.79236e-18 -4.9296e-13 0)
(-6.87967e-18 -4.92961e-13 0)
(-6.96318e-18 -4.92961e-13 0)
(-7.04295e-18 -4.92961e-13 0)
(-7.11903e-18 -4.92961e-13 0)
(-7.19151e-18 -4.92961e-13 0)
(-7.26044e-18 -4.92961e-13 0)
(-7.32588e-18 -4.92961e-13 0)
(-7.38792e-18 -4.92961e-13 0)
(-7.44661e-18 -4.92961e-13 0)
(-7.50203e-18 -4.92961e-13 0)
(-7.55425e-18 -4.92961e-13 0)
(-7.60333e-18 -4.92961e-13 0)
(-7.64934e-18 -4.92961e-13 0)
(-7.69236e-18 -4.92961e-13 0)
(-7.73245e-18 -4.92961e-13 0)
(-7.76968e-18 -4.92961e-13 0)
(-7.80413e-18 -4.92961e-13 0)
(-7.83585e-18 -4.92961e-13 0)
(-7.86492e-18 -4.92961e-13 0)
(-7.89141e-18 -4.92961e-13 0)
(-7.91538e-18 -4.92961e-13 0)
(-7.93689e-18 -4.92961e-13 0)
(-7.95603e-18 -4.92961e-13 0)
(-7.97283e-18 -4.92961e-13 0)
(-7.98739e-18 -4.92961e-13 0)
(-7.99974e-18 -4.92961e-13 0)
(-8.00997e-18 -4.92961e-13 0)
(-8.01812e-18 -4.92961e-13 0)
(-8.02427e-18 -4.92961e-13 0)
(-8.02846e-18 -4.92961e-13 0)
(-8.03077e-18 -4.92961e-13 0)
(-8.03124e-18 -4.92961e-13 0)
(-8.02993e-18 -4.92961e-13 0)
(-8.0269e-18 -4.92961e-13 0)
(-8.0222e-18 -4.92961e-13 0)
(-8.01589e-18 -4.92961e-13 0)
(-8.00802e-18 -4.92961e-13 0)
(-7.99864e-18 -4.92961e-13 0)
(-7.9878e-18 -4.92961e-13 0)
(-7.97554e-18 -4.92961e-13 0)
(-1.45186e-19 -4.92959e-13 0)
(-4.34139e-19 -4.92959e-13 0)
(-7.20126e-19 -4.92959e-13 0)
(-1.00289e-18 -4.92959e-13 0)
(-1.28221e-18 -4.92959e-13 0)
(-1.55784e-18 -4.92959e-13 0)
(-1.82959e-18 -4.92959e-13 0)
(-2.09726e-18 -4.92959e-13 0)
(-2.36067e-18 -4.92959e-13 0)
(-2.61967e-18 -4.92959e-13 0)
(-2.8741e-18 -4.92959e-13 0)
(-3.12382e-18 -4.9296e-13 0)
(-3.36872e-18 -4.9296e-13 0)
(-3.60869e-18 -4.9296e-13 0)
(-3.84362e-18 -4.9296e-13 0)
(-4.07343e-18 -4.9296e-13 0)
(-4.29805e-18 -4.9296e-13 0)
(-4.51741e-18 -4.9296e-13 0)
(-4.73147e-18 -4.9296e-13 0)
(-4.94017e-18 -4.9296e-13 0)
(-5.14348e-18 -4.9296e-13 0)
(-5.34139e-18 -4.9296e-13 0)
(-5.53387e-18 -4.9296e-13 0)
(-5.72092e-18 -4.9296e-13 0)
(-5.90254e-18 -4.9296e-13 0)
(-6.07874e-18 -4.9296e-13 0)
(-6.24954e-18 -4.9296e-13 0)
(-6.41495e-18 -4.9296e-13 0)
(-6.575e-18 -4.9296e-13 0)
(-6.72974e-18 -4.9296e-13 0)
(-6.87919e-18 -4.9296e-13 0)
(-7.02341e-18 -4.9296e-13 0)
(-7.16244e-18 -4.9296e-13 0)
(-7.29635e-18 -4.9296e-13 0)
(-7.42517e-18 -4.9296e-13 0)
(-7.54899e-18 -4.9296e-13 0)
(-7.66786e-18 -4.9296e-13 0)
(-7.78186e-18 -4.9296e-13 0)
(-7.89104e-18 -4.9296e-13 0)
(-7.9955e-18 -4.9296e-13 0)
(-8.0953e-18 -4.9296e-13 0)
(-8.19052e-18 -4.9296e-13 0)
(-8.28124e-18 -4.9296e-13 0)
(-8.36754e-18 -4.9296e-13 0)
(-8.44952e-18 -4.9296e-13 0)
(-8.52724e-18 -4.9296e-13 0)
(-8.6008e-18 -4.92961e-13 0)
(-8.67028e-18 -4.92961e-13 0)
(-8.73576e-18 -4.92961e-13 0)
(-8.79734e-18 -4.92961e-13 0)
(-8.85511e-18 -4.92961e-13 0)
(-8.90914e-18 -4.92961e-13 0)
(-8.95953e-18 -4.92961e-13 0)
(-9.00636e-18 -4.92961e-13 0)
(-9.04971e-18 -4.92961e-13 0)
(-9.08969e-18 -4.92961e-13 0)
(-9.12636e-18 -4.92961e-13 0)
(-9.15983e-18 -4.92961e-13 0)
(-9.19016e-18 -4.92961e-13 0)
(-9.21745e-18 -4.92961e-13 0)
(-9.24178e-18 -4.92961e-13 0)
(-9.26322e-18 -4.92961e-13 0)
(-9.28187e-18 -4.92961e-13 0)
(-9.2978e-18 -4.92961e-13 0)
(-9.31109e-18 -4.92961e-13 0)
(-9.32182e-18 -4.92961e-13 0)
(-9.33006e-18 -4.92961e-13 0)
(-9.33589e-18 -4.92961e-13 0)
(-9.33939e-18 -4.92961e-13 0)
(-9.34062e-18 -4.92961e-13 0)
(-9.33967e-18 -4.92961e-13 0)
(-9.33659e-18 -4.92961e-13 0)
(-9.33146e-18 -4.92961e-13 0)
(-9.32435e-18 -4.92961e-13 0)
(-9.31533e-18 -4.92961e-13 0)
(-9.30445e-18 -4.92961e-13 0)
(-9.29178e-18 -4.92961e-13 0)
(-9.27739e-18 -4.92961e-13 0)
(-9.26134e-18 -4.92961e-13 0)
(-9.24368e-18 -4.92962e-13 0)
(-1.74445e-19 -4.92959e-13 0)
(-5.21622e-19 -4.92959e-13 0)
(-8.65207e-19 -4.92959e-13 0)
(-1.20488e-18 -4.92959e-13 0)
(-1.54033e-18 -4.92959e-13 0)
(-1.87129e-18 -4.92959e-13 0)
(-2.19749e-18 -4.92959e-13 0)
(-2.51868e-18 -4.92959e-13 0)
(-2.83465e-18 -4.92959e-13 0)
(-3.14518e-18 -4.92959e-13 0)
(-3.45008e-18 -4.92959e-13 0)
(-3.74919e-18 -4.92959e-13 0)
(-4.04234e-18 -4.92959e-13 0)
(-4.32941e-18 -4.92959e-13 0)
(-4.61026e-18 -4.92959e-13 0)
(-4.88479e-18 -4.92959e-13 0)
(-5.15291e-18 -4.92959e-13 0)
(-5.41453e-18 -4.92959e-13 0)
(-5.6696e-18 -4.92959e-13 0)
(-5.91806e-18 -4.92959e-13 0)
(-6.15986e-18 -4.92959e-13 0)
(-6.39499e-18 -4.92959e-13 0)
(-6.62342e-18 -4.92959e-13 0)
(-6.84515e-18 -4.92959e-13 0)
(-7.06019e-18 -4.92959e-13 0)
(-7.26854e-18 -4.9296e-13 0)
(-7.47022e-18 -4.9296e-13 0)
(-7.66528e-18 -4.9296e-13 0)
(-7.85374e-18 -4.9296e-13 0)
(-8.03565e-18 -4.9296e-13 0)
(-8.21107e-18 -4.9296e-13 0)
(-8.38006e-18 -4.9296e-13 0)
(-8.54268e-18 -4.9296e-13 0)
(-8.699e-18 -4.9296e-13 0)
(-8.8491e-18 -4.9296e-13 0)
(-8.99306e-18 -4.9296e-13 0)
(-9.13097e-18 -4.9296e-13 0)
(-9.26291e-18 -4.9296e-13 0)
(-9.38898e-18 -4.9296e-13 0)
(-9.50927e-18 -4.9296e-13 0)
(-9.62388e-18 -4.9296e-13 0)
(-9.73291e-18 -4.9296e-13 0)
(-9.83647e-18 -4.9296e-13 0)
(-9.93466e-18 -4.9296e-13 0)
(-1.00276e-17 -4.9296e-13 0)
(-1.01154e-17 -4.9296e-13 0)
(-1.01981e-17 -4.9296e-13 0)
(-1.02759e-17 -4.9296e-13 0)
(-1.03488e-17 -4.9296e-13 0)
(-1.04171e-17 -4.9296e-13 0)
(-1.04807e-17 -4.92961e-13 0)
(-1.05399e-17 -4.92961e-13 0)
(-1.05946e-17 -4.92961e-13 0)
(-1.06451e-17 -4.92961e-13 0)
(-1.06914e-17 -4.92961e-13 0)
(-1.07337e-17 -4.92961e-13 0)
(-1.07721e-17 -4.92961e-13 0)
(-1.08066e-17 -4.92961e-13 0)
(-1.08373e-17 -4.92961e-13 0)
(-1.08645e-17 -4.92961e-13 0)
(-1.08881e-17 -4.92961e-13 0)
(-1.09083e-17 -4.92961e-13 0)
(-1.09252e-17 -4.92961e-13 0)
(-1.09389e-17 -4.92961e-13 0)
(-1.09495e-17 -4.92961e-13 0)
(-1.0957e-17 -4.92961e-13 0)
(-1.09616e-17 -4.92961e-13 0)
(-1.09634e-17 -4.92961e-13 0)
(-1.09625e-17 -4.92961e-13 0)
(-1.09589e-17 -4.92961e-13 0)
(-1.09528e-17 -4.92961e-13 0)
(-1.09442e-17 -4.92961e-13 0)
(-1.09332e-17 -4.92961e-13 0)
(-1.09199e-17 -4.92961e-13 0)
(-1.09044e-17 -4.92961e-13 0)
(-1.08868e-17 -4.92961e-13 0)
(-1.08671e-17 -4.92961e-13 0)
(-1.08454e-17 -4.92962e-13 0)
(-1.08219e-17 -4.92962e-13 0)
(-1.07965e-17 -4.92962e-13 0)
(-2.11696e-19 -4.92958e-13 0)
(-6.32997e-19 -4.92958e-13 0)
(-1.0499e-18 -4.92958e-13 0)
(-1.46199e-18 -4.92958e-13 0)
(-1.86888e-18 -4.92958e-13 0)
(-2.27021e-18 -4.92958e-13 0)
(-2.66563e-18 -4.92958e-13 0)
(-3.05484e-18 -4.92958e-13 0)
(-3.43755e-18 -4.92958e-13 0)
(-3.81348e-18 -4.92959e-13 0)
(-4.1824e-18 -4.92959e-13 0)
(-4.54409e-18 -4.92959e-13 0)
(-4.89834e-18 -4.92959e-13 0)
(-5.24499e-18 -4.92959e-13 0)
(-5.58387e-18 -4.92959e-13 0)
(-5.91485e-18 -4.92959e-13 0)
(-6.23781e-18 -4.92959e-13 0)
(-6.55265e-18 -4.92959e-13 0)
(-6.85929e-18 -4.92959e-13 0)
(-7.15766e-18 -4.92959e-13 0)
(-7.44772e-18 -4.92959e-13 0)
(-7.72943e-18 -4.92959e-13 0)
(-8.00277e-18 -4.92959e-13 0)
(-8.26774e-18 -4.92959e-13 0)
(-8.52435e-18 -4.92959e-13 0)
(-8.77261e-18 -4.92959e-13 0)
(-9.01256e-18 -4.92959e-13 0)
(-9.24424e-18 -4.92959e-13 0)
(-9.4677e-18 -4.92959e-13 0)
(-9.68301e-18 -4.92959e-13 0)
(-9.89024e-18 -4.92959e-13 0)
(-1.00895e-17 -4.92959e-13 0)
(-1.02808e-17 -4.92959e-13 0)
(-1.04643e-17 -4.9296e-13 0)
(-1.064e-17 -4.9296e-13 0)
(-1.08082e-17 -4.9296e-13 0)
(-1.09689e-17 -4.9296e-13 0)
(-1.11221e-17 -4.9296e-13 0)
(-1.12682e-17 -4.9296e-13 0)
(-1.14071e-17 -4.9296e-13 0)
(-1.15389e-17 -4.9296e-13 0)
(-1.16639e-17 -4.9296e-13 0)
(-1.17822e-17 -4.9296e-13 0)
(-1.18939e-17 -4.9296e-13 0)
(-1.19991e-17 -4.9296e-13 0)
(-1.2098e-17 -4.9296e-13 0)
(-1.21907e-17 -4.9296e-13 0)
(-1.22773e-17 -4.9296e-13 0)
(-1.23581e-17 -4.9296e-13 0)
(-1.24331e-17 -4.9296e-13 0)
(-1.25025e-17 -4.9296e-13 0)
(-1.25665e-17 -4.9296e-13 0)
(-1.26251e-17 -4.9296e-13 0)
(-1.26786e-17 -4.92961e-13 0)
(-1.2727e-17 -4.92961e-13 0)
(-1.27705e-17 -4.92961e-13 0)
(-1.28092e-17 -4.92961e-13 0)
(-1.28434e-17 -4.92961e-13 0)
(-1.2873e-17 -4.92961e-13 0)
(-1.28983e-17 -4.92961e-13 0)
(-1.29194e-17 -4.92961e-13 0)
(-1.29364e-17 -4.92961e-13 0)
(-1.29494e-17 -4.92961e-13 0)
(-1.29587e-17 -4.92961e-13 0)
(-1.29642e-17 -4.92961e-13 0)
(-1.29661e-17 -4.92961e-13 0)
(-1.29646e-17 -4.92961e-13 0)
(-1.29598e-17 -4.92961e-13 0)
(-1.29517e-17 -4.92961e-13 0)
(-1.29405e-17 -4.92961e-13 0)
(-1.29263e-17 -4.92961e-13 0)
(-1.29093e-17 -4.92961e-13 0)
(-1.28894e-17 -4.92961e-13 0)
(-1.28669e-17 -4.92961e-13 0)
(-1.28418e-17 -4.92961e-13 0)
(-1.28143e-17 -4.92962e-13 0)
(-1.27843e-17 -4.92962e-13 0)
(-1.27521e-17 -4.92962e-13 0)
(-1.27177e-17 -4.92962e-13 0)
(-1.26813e-17 -4.92962e-13 0)
(-2.59198e-19 -4.92958e-13 0)
(-7.75015e-19 -4.92958e-13 0)
(-1.28539e-18 -4.92958e-13 0)
(-1.7898e-18 -4.92958e-13 0)
(-2.28772e-18 -4.92958e-13 0)
(-2.77868e-18 -4.92958e-13 0)
(-3.26224e-18 -4.92958e-13 0)
(-3.738e-18 -4.92958e-13 0)
(-4.20558e-18 -4.92958e-13 0)
(-4.66463e-18 -4.92958e-13 0)
(-5.11484e-18 -4.92958e-13 0)
(-5.55592e-18 -4.92958e-13 0)
(-5.98761e-18 -4.92958e-13 0)
(-6.40969e-18 -4.92958e-13 0)
(-6.82196e-18 -4.92958e-13 0)
(-7.22423e-18 -4.92958e-13 0)
(-7.61636e-18 -4.92958e-13 0)
(-7.99823e-18 -4.92958e-13 0)
(-8.36972e-18 -4.92958e-13 0)
(-8.73075e-18 -4.92958e-13 0)
(-9.08128e-18 -4.92958e-13 0)
(-9.42124e-18 -4.92958e-13 0)
(-9.75064e-18 -4.92958e-13 0)
(-1.00695e-17 -4.92959e-13 0)
(-1.03777e-17 -4.92959e-13 0)
(-1.06754e-17 -4.92959e-13 0)
(-1.09627e-17 -4.92959e-13 0)
(-1.12395e-17 -4.92959e-13 0)
(-1.15059e-17 -4.92959e-13 0)
(-1.17621e-17 -4.92959e-13 0)
(-1.20081e-17 -4.92959e-13 0)
(-1.22441e-17 -4.92959e-13 0)
(-1.24701e-17 -4.92959e-13 0)
(-1.26863e-17 -4.92959e-13 0)
(-1.28928e-17 -4.92959e-13 0)
(-1.30898e-17 -4.92959e-13 0)
(-1.32774e-17 -4.92959e-13 0)
(-1.34557e-17 -4.92959e-13 0)
(-1.3625e-17 -4.92959e-13 0)
(-1.37854e-17 -4.9296e-13 0)
(-1.39371e-17 -4.9296e-13 0)
(-1.40802e-17 -4.9296e-13 0)
(-1.42149e-17 -4.9296e-13 0)
(-1.43414e-17 -4.9296e-13 0)
(-1.446e-17 -4.9296e-13 0)
(-1.45707e-17 -4.9296e-13 0)
(-1.46737e-17 -4.9296e-13 0)
(-1.47693e-17 -4.9296e-13 0)
(-1.48576e-17 -4.9296e-13 0)
(-1.49389e-17 -4.9296e-13 0)
(-1.50132e-17 -4.9296e-13 0)
(-1.50809e-17 -4.9296e-13 0)
(-1.5142e-17 -4.9296e-13 0)
(-1.51968e-17 -4.9296e-13 0)
(-1.52455e-17 -4.9296e-13 0)
(-1.52882e-17 -4.92961e-13 0)
(-1.53251e-17 -4.92961e-13 0)
(-1.53564e-17 -4.92961e-13 0)
(-1.53823e-17 -4.92961e-13 0)
(-1.54029e-17 -4.92961e-13 0)
(-1.54184e-17 -4.92961e-13 0)
(-1.5429e-17 -4.92961e-13 0)
(-1.54349e-17 -4.92961e-13 0)
(-1.54362e-17 -4.92961e-13 0)
(-1.5433e-17 -4.92961e-13 0)
(-1.54256e-17 -4.92961e-13 0)
(-1.54141e-17 -4.92961e-13 0)
(-1.53986e-17 -4.92961e-13 0)
(-1.53794e-17 -4.92961e-13 0)
(-1.53564e-17 -4.92961e-13 0)
(-1.533e-17 -4.92961e-13 0)
(-1.53001e-17 -4.92961e-13 0)
(-1.5267e-17 -4.92961e-13 0)
(-1.52308e-17 -4.92962e-13 0)
(-1.51916e-17 -4.92962e-13 0)
(-1.51496e-17 -4.92962e-13 0)
(-1.51048e-17 -4.92962e-13 0)
(-1.50574e-17 -4.92962e-13 0)
(-1.50075e-17 -4.92962e-13 0)
(-1.49552e-17 -4.92962e-13 0)
(-3.20005e-19 -4.92957e-13 0)
(-9.56807e-19 -4.92957e-13 0)
(-1.58682e-18 -4.92957e-13 0)
(-2.20934e-18 -4.92957e-13 0)
(-2.8237e-18 -4.92957e-13 0)
(-3.42927e-18 -4.92957e-13 0)
(-4.02548e-18 -4.92957e-13 0)
(-4.61178e-18 -4.92957e-13 0)
(-5.18768e-18 -4.92957e-13 0)
(-5.75273e-18 -4.92957e-13 0)
(-6.30651e-18 -4.92957e-13 0)
(-6.84865e-18 -4.92957e-13 0)
(-7.37881e-18 -4.92957e-13 0)
(-7.89669e-18 -4.92957e-13 0)
(-8.40204e-18 -4.92957e-13 0)
(-8.89462e-18 -4.92957e-13 0)
(-9.37423e-18 -4.92957e-13 0)
(-9.84072e-18 -4.92957e-13 0)
(-1.0294e-17 -4.92958e-13 0)
(-1.07338e-17 -4.92958e-13 0)
(-1.11603e-17 -4.92958e-13 0)
(-1.15732e-17 -4.92958e-13 0)
(-1.19727e-17 -4.92958e-13 0)
(-1.23586e-17 -4.92958e-13 0)
(-1.27311e-17 -4.92958e-13 0)
(-1.30901e-17 -4.92958e-13 0)
(-1.34357e-17 -4.92958e-13 0)
(-1.37681e-17 -4.92958e-13 0)
(-1.40873e-17 -4.92958e-13 0)
(-1.43934e-17 -4.92958e-13 0)
(-1.46866e-17 -4.92958e-13 0)
(-1.4967e-17 -4.92959e-13 0)
(-1.52348e-17 -4.92959e-13 0)
(-1.54902e-17 -4.92959e-13 0)
(-1.57333e-17 -4.92959e-13 0)
(-1.59643e-17 -4.92959e-13 0)
(-1.61835e-17 -4.92959e-13 0)
(-1.6391e-17 -4.92959e-13 0)
(-1.6587e-17 -4.92959e-13 0)
(-1.67719e-17 -4.92959e-13 0)
(-1.69457e-17 -4.92959e-13 0)
(-1.71089e-17 -4.92959e-13 0)
(-1.72615e-17 -4.92959e-13 0)
(-1.74038e-17 -4.9296e-13 0)
(-1.75361e-17 -4.9296e-13 0)
(-1.76586e-17 -4.9296e-13 0)
(-1.77716e-17 -4.9296e-13 0)
(-1.78753e-17 -4.9296e-13 0)
(-1.797e-17 -4.9296e-13 0)
(-1.80559e-17 -4.9296e-13 0)
(-1.81332e-17 -4.9296e-13 0)
(-1.82023e-17 -4.9296e-13 0)
(-1.82633e-17 -4.9296e-13 0)
(-1.83165e-17 -4.9296e-13 0)
(-1.83622e-17 -4.9296e-13 0)
(-1.84005e-17 -4.9296e-13 0)
(-1.84317e-17 -4.92961e-13 0)
(-1.84561e-17 -4.92961e-13 0)
(-1.84739e-17 -4.92961e-13 0)
(-1.84853e-17 -4.92961e-13 0)
(-1.84905e-17 -4.92961e-13 0)
(-1.84898e-17 -4.92961e-13 0)
(-1.84833e-17 -4.92961e-13 0)
(-1.84714e-17 -4.92961e-13 0)
(-1.84541e-17 -4.92961e-13 0)
(-1.84317e-17 -4.92961e-13 0)
(-1.84044e-17 -4.92961e-13 0)
(-1.83724e-17 -4.92961e-13 0)
(-1.83359e-17 -4.92961e-13 0)
(-1.82951e-17 -4.92961e-13 0)
(-1.82501e-17 -4.92961e-13 0)
(-1.82011e-17 -4.92962e-13 0)
(-1.81484e-17 -4.92962e-13 0)
(-1.8092e-17 -4.92962e-13 0)
(-1.80322e-17 -4.92962e-13 0)
(-1.79691e-17 -4.92962e-13 0)
(-1.79028e-17 -4.92962e-13 0)
(-1.78335e-17 -4.92962e-13 0)
(-1.77614e-17 -4.92962e-13 0)
(-1.76866e-17 -4.92962e-13 0)
(-3.98273e-19 -4.92956e-13 0)
(-1.19079e-18 -4.92956e-13 0)
(-1.97477e-18 -4.92956e-13 0)
(-2.74925e-18 -4.92956e-13 0)
(-3.51336e-18 -4.92956e-13 0)
(-4.26626e-18 -4.92956e-13 0)
(-5.00719e-18 -4.92956e-13 0)
(-5.73542e-18 -4.92956e-13 0)
(-6.4503e-18 -4.92956e-13 0)
(-7.15123e-18 -4.92956e-13 0)
(-7.83765e-18 -4.92956e-13 0)
(-8.50908e-18 -4.92956e-13 0)
(-9.16507e-18 -4.92956e-13 0)
(-9.80522e-18 -4.92956e-13 0)
(-1.04292e-17 -4.92956e-13 0)
(-1.10367e-17 -4.92956e-13 0)
(-1.16274e-17 -4.92957e-13 0)
(-1.22012e-17 -4.92957e-13 0)
(-1.27579e-17 -4.92957e-13 0)
(-1.32973e-17 -4.92957e-13 0)
(-1.38194e-17 -4.92957e-13 0)
(-1.43241e-17 -4.92957e-13 0)
(-1.48114e-17 -4.92957e-13 0)
(-1.52812e-17 -4.92957e-13 0)
(-1.57337e-17 -4.92957e-13 0)
(-1.61688e-17 -4.92957e-13 0)