/*--------------------------------*- C++ -*----------------------------------*\
  =========                 |
  \\      /  F ield         | OpenFOAM: The Open Source CFD Toolbox
   \\    /   O peration     | Website:  https://openfoam.org
    \\  /    A nd           | Version:  8
     \\/     M anipulation  |
\*---------------------------------------------------------------------------*/
FoamFile
{
    version     2.0;
    format      ascii;
    class       volScalarField;
    location    "2000";
    object      p;
}
// * * * * * * * * * * * * * * * * * * * * * * * * * * * * * * * * * * * * * //

dimensions      [1 -1 -2 0 0 0 0];

internalField   nonuniform List<scalar> 
12800
(
261.004
261.004
261.004
261.004
261.004
261.004
261.004
261.004
261.004
261.004
261.004
261.004
261.004
261.004
261.004
261.004
261.004
261.004
261.004
261.004
261.004
261.004
261.004
261.004
261.004
261.005
261.005
261.005
261.005
261.005
261.005
261.005
261.005
261.005
261.005
261.005
261.005
261.005
261.005
261.005
261.005
261.005
261.005
261.005
261.006
261.006
261.006
261.006
261.006
261.006
261.006
261.006
261.006
261.006
261.006
261.006
261.006
261.006
261.006
261.006
261.006
261.006
261.007
261.007
261.007
261.007
261.007
261.007
261.007
261.007
261.007
261.007
261.007
261.007
261.007
261.007
261.007
261.007
261.007
261.007
259.778
259.778
259.778
259.778
259.778
259.778
259.778
259.778
259.778
259.778
259.778
259.778
259.778
259.778
259.778
259.778
259.778
259.778
259.778
259.778
259.778
259.778
259.778
259.778
259.778
259.778
259.778
259.778
259.778
259.778
259.778
259.779
259.779
259.779
259.779
259.779
259.779
259.779
259.779
259.779
259.779
259.779
259.779
259.779
259.779
259.779
259.779
259.779
259.779
259.779
259.78
259.78
259.78
259.78
259.78
259.78
259.78
259.78
259.78
259.78
259.78
259.78
259.78
259.78
259.78
259.78
259.78
259.781
259.781
259.781
259.781
259.781
259.781
259.781
259.781
259.781
259.781
259.781
259.781
259.781
258.551
258.551
258.551
258.551
258.551
258.551
258.551
258.551
258.551
258.551
258.551
258.551
258.551
258.551
258.551
258.551
258.551
258.551
258.551
258.552
258.552
258.552
258.552
258.552
258.552
258.552
258.552
258.552
258.552
258.552
258.552
258.552
258.552
258.552
258.552
258.552
258.552
258.552
258.552
258.553
258.553
258.553
258.553
258.553
258.553
258.553
258.553
258.553
258.553
258.553
258.553
258.553
258.553
258.553
258.553
258.554
258.554
258.554
258.554
258.554
258.554
258.554
258.554
258.554
258.554
258.554
258.554
258.554
258.554
258.554
258.554
258.554
258.555
258.555
258.555
258.555
258.555
258.555
258.555
258.555
257.324
257.324
257.324
257.324
257.324
257.325
257.325
257.325
257.325
257.325
257.325
257.325
257.325
257.325
257.325
257.325
257.325
257.325
257.325
257.325
257.325
257.325
257.325
257.325
257.325
257.325
257.325
257.325
257.325
257.325
257.326
257.326
257.326
257.326
257.326
257.326
257.326
257.326
257.326
257.326
257.326
257.326
257.326
257.326
257.326
257.326
257.327
257.327
257.327
257.327
257.327
257.327
257.327
257.327
257.327
257.327
257.327
257.327
257.327
257.327
257.327
257.328
257.328
257.328
257.328
257.328
257.328
257.328
257.328
257.328
257.328
257.328
257.328
257.328
257.328
257.328
257.328
257.329
257.329
257.329
256.098
256.098
256.098
256.098
256.098
256.098
256.098
256.098
256.098
256.098
256.098
256.098
256.098
256.098
256.098
256.098
256.098
256.098
256.098
256.098
256.098
256.098
256.098
256.099
256.099
256.099
256.099
256.099
256.099
256.099
256.099
256.099
256.099
256.099
256.099
256.099
256.099
256.099
256.099
256.1
256.1
256.1
256.1
256.1
256.1
256.1
256.1
256.1
256.1
256.1
256.1
256.1
256.101
256.101
256.101
256.101
256.101
256.101
256.101
256.101
256.101
256.101
256.101
256.101
256.101
256.101
256.102
256.102
256.102
256.102
256.102
256.102
256.102
256.102
256.102
256.102
256.102
256.102
256.102
256.102
254.871
254.871
254.871
254.871
254.871
254.871
254.871
254.871
254.871
254.871
254.871
254.871
254.871
254.871
254.871
254.871
254.871
254.871
254.871
254.871
254.872
254.872
254.872
254.872
254.872
254.872
254.872
254.872
254.872
254.872
254.872
254.872
254.872
254.872
254.873
254.873
254.873
254.873
254.873
254.873
254.873
254.873
254.873
254.873
254.873
254.873
254.874
254.874
254.874
254.874
254.874
254.874
254.874
254.874
254.874
254.874
254.874
254.874
254.875
254.875
254.875
254.875
254.875
254.875
254.875
254.875
254.875
254.875
254.875
254.875
254.875
254.876
254.876
254.876
254.876
254.876
254.876
254.876
254.876
254.876
253.644
253.644
253.644
253.644
253.644
253.644
253.644
253.644
253.644
253.644
253.644
253.644
253.644
253.644
253.644
253.644
253.644
253.644
253.644
253.645
253.645
253.645
253.645
253.645
253.645
253.645
253.645
253.645
253.645
253.645
253.645
253.645
253.646
253.646
253.646
253.646
253.646
253.646
253.646
253.646
253.646
253.646
253.646
253.647
253.647
253.647
253.647
253.647
253.647
253.647
253.647
253.647
253.647
253.648
253.648
253.648
253.648
253.648
253.648
253.648
253.648
253.648
253.648
253.648
253.649
253.649
253.649
253.649
253.649
253.649
253.649
253.649
253.649
253.649
253.649
253.65
253.65
253.65
253.65
253.65
252.417
252.417
252.417
252.417
252.417
252.417
252.417
252.417
252.417
252.417
252.417
252.417
252.417
252.417
252.417
252.417
252.417
252.417
252.417
252.417
252.418
252.418
252.418
252.418
252.418
252.418
252.418
252.418
252.418
252.418
252.418
252.419
252.419
252.419
252.419
252.419
252.419
252.419
252.419
252.419
252.419
252.42
252.42
252.42
252.42
252.42
252.42
252.42
252.42
252.42
252.421
252.421
252.421
252.421
252.421
252.421
252.421
252.421
252.421
252.422
252.422
252.422
252.422
252.422
252.422
252.422
252.422
252.422
252.423
252.423
252.423
252.423
252.423
252.423
252.423
252.423
252.423
252.423
252.424
252.424
251.189
251.189
251.189
251.189
251.189
251.189
251.189
251.189
251.189
251.189
251.189
251.19
251.19
251.19
251.19
251.19
251.19
251.19
251.19
251.19
251.19
251.19
251.19
251.191
251.191
251.191
251.191
251.191
251.191
251.191
251.191
251.191
251.192
251.192
251.192
251.192
251.192
251.192
251.192
251.192
251.193
251.193
251.193
251.193
251.193
251.193
251.193
251.193
251.194
251.194
251.194
251.194
251.194
251.194
251.194
251.194
251.195
251.195
251.195
251.195
251.195
251.195
251.195
251.195
251.196
251.196
251.196
251.196
251.196
251.196
251.196
251.196
251.197
251.197
251.197
251.197
251.197
251.197
251.197
251.197
249.961
249.961
249.962
249.962
249.962
249.962
249.962
249.962
249.962
249.962
249.962
249.962
249.962
249.962
249.962
249.962
249.962
249.962
249.963
249.963
249.963
249.963
249.963
249.963
249.963
249.963
249.963
249.964
249.964
249.964
249.964
249.964
249.964
249.964
249.965
249.965
249.965
249.965
249.965
249.965
249.965
249.966
249.966
249.966
249.966
249.966
249.966
249.967
249.967
249.967
249.967
249.967
249.967
249.967
249.968
249.968
249.968
249.968
249.968
249.968
249.968
249.969
249.969
249.969
249.969
249.969
249.969
249.97
249.97
249.97
249.97
249.97
249.97
249.97
249.97
249.971
249.971
249.971
249.971
249.971
248.733
248.733
248.734
248.734
248.734
248.734
248.734
248.734
248.734
248.734
248.734
248.734
248.734
248.734
248.734
248.734
248.734
248.735
248.735
248.735
248.735
248.735
248.735
248.735
248.736
248.736
248.736
248.736
248.736
248.736
248.736
248.737
248.737
248.737
248.737
248.737
248.737
248.738
248.738
248.738
248.738
248.738
248.739
248.739
248.739
248.739
248.739
248.739
248.74
248.74
248.74
248.74
248.74
248.741
248.741
248.741
248.741
248.741
248.741
248.742
248.742
248.742
248.742
248.742
248.742
248.743
248.743
248.743
248.743
248.743
248.743
248.744
248.744
248.744
248.744
248.744
248.744
248.745
248.745
248.745
247.505
247.505
247.505
247.505
247.505
247.505
247.505
247.505
247.505
247.506
247.506
247.506
247.506
247.506
247.506
247.506
247.506
247.506
247.507
247.507
247.507
247.507
247.507
247.507
247.508
247.508
247.508
247.508
247.508
247.508
247.509
247.509
247.509
247.509
247.509
247.51
247.51
247.51
247.51
247.51
247.511
247.511
247.511
247.511
247.512
247.512
247.512
247.512
247.512
247.513
247.513
247.513
247.513
247.513
247.514
247.514
247.514
247.514
247.515
247.515
247.515
247.515
247.515
247.516
247.516
247.516
247.516
247.516
247.517
247.517
247.517
247.517
247.517
247.518
247.518
247.518
247.518
247.518
247.519
247.519
246.276
246.276
246.276
246.276
246.276
246.277
246.277
246.277
246.277
246.277
246.277
246.277
246.277
246.277
246.277
246.278
246.278
246.278
246.278
246.278
246.278
246.279
246.279
246.279
246.279
246.279
246.28
246.28
246.28
246.28
246.281
246.281
246.281
246.281
246.281
246.282
246.282
246.282
246.282
246.283
246.283
246.283
246.283
246.284
246.284
246.284
246.284
246.285
246.285
246.285
246.286
246.286
246.286
246.286
246.287
246.287
246.287
246.287
246.288
246.288
246.288
246.288
246.289
246.289
246.289
246.289
246.29
246.29
246.29
246.29
246.29
246.291
246.291
246.291
246.291
246.292
246.292
246.292
246.292
246.292
245.047
245.047
245.047
245.047
245.047
245.047
245.047
245.047
245.048
245.048
245.048
245.048
245.048
245.048
245.048
245.049
245.049
245.049
245.049
245.049
245.05
245.05
245.05
245.05
245.051
245.051
245.051
245.051
245.052
245.052
245.052
245.052
245.053
245.053
245.053
245.053
245.054
245.054
245.054
245.055
245.055
245.055
245.056
245.056
245.056
245.056
245.057
245.057
245.057
245.058
245.058
245.058
245.059
245.059
245.059
245.06
245.06
245.06
245.06
245.061
245.061
245.061
245.062
245.062
245.062
245.062
245.063
245.063
245.063
245.064
245.064
245.064
245.064
245.065
245.065
245.065
245.066
245.066
245.066
245.066
243.817
243.817
243.817
243.817
243.817
243.817
243.817
243.818
243.818
243.818
243.818
243.818
243.818
243.819
243.819
243.819
243.819
243.819
243.82
243.82
243.82
243.82
243.821
243.821
243.821
243.822
243.822
243.822
243.823
243.823
243.823
243.824
243.824
243.824
243.825
243.825
243.825
243.826
243.826
243.826
243.827
243.827
243.827
243.828
243.828
243.828
243.829
243.829
243.83
243.83
243.83
243.831
243.831
243.831
243.832
243.832
243.832
243.833
243.833
243.833
243.834
243.834
243.835
243.835
243.835
243.836
243.836
243.836
243.837
243.837
243.837
243.838
243.838
243.838
243.839
243.839
243.839
243.84
243.84
243.84
242.586
242.586
242.587
242.587
242.587
242.587
242.587
242.587
242.587
242.587
242.588
242.588
242.588
242.588
242.588
242.589
242.589
242.589
242.59
242.59
242.59
242.59
242.591
242.591
242.591
242.592
242.592
242.593
242.593
242.593
242.594
242.594
242.595
242.595
242.595
242.596
242.596
242.597
242.597
242.597
242.598
242.598
242.599
242.599
242.6
242.6
242.6
242.601
242.601
242.602
242.602
242.603
242.603
242.604
242.604
242.604
242.605
242.605
242.606
242.606
242.607
242.607
242.607
242.608
242.608
242.609
242.609
242.609
242.61
242.61
242.611
242.611
242.611
242.612
242.612
242.613
242.613
242.613
242.614
242.614
241.355
241.355
241.355
241.355
241.355
241.355
241.355
241.356
241.356
241.356
241.356
241.356
241.357
241.357
241.357
241.358
241.358
241.358
241.359
241.359
241.359
241.36
241.36
241.361
241.361
241.361
241.362
241.362
241.363
241.363
241.364
241.364
241.365
241.365
241.366
241.366
241.367
241.367
241.368
241.368
241.369
241.369
241.37
241.37
241.371
241.371
241.372
241.372
241.373
241.373
241.374
241.374
241.375
241.375
241.376
241.376
241.377
241.378
241.378
241.379
241.379
241.38
241.38
241.381
241.381
241.381
241.382
241.382
241.383
241.383
241.384
241.384
241.385
241.385
241.386
241.386
241.387
241.387
241.388
241.388
240.122
240.122
240.122
240.122
240.123
240.123
240.123
240.123
240.123
240.124
240.124
240.124
240.124
240.125
240.125
240.126
240.126
240.126
240.127
240.127
240.128
240.128
240.129
240.129
240.13
240.13
240.131
240.131
240.132
240.132
240.133
240.133
240.134
240.135
240.135
240.136
240.136
240.137
240.138
240.138
240.139
240.14
240.14
240.141
240.141
240.142
240.143
240.143
240.144
240.145
240.145
240.146
240.146
240.147
240.148
240.148
240.149
240.15
240.15
240.151
240.151
240.152
240.153
240.153
240.154
240.154
240.155
240.155
240.156
240.157
240.157
240.158
240.158
240.159
240.159
240.16
240.16
240.161
240.161
240.162
238.888
238.888
238.888
238.889
238.889
238.889
238.889
238.889
238.89
238.89
238.89
238.891
238.891
238.891
238.892
238.892
238.893
238.893
238.894
238.894
238.895
238.895
238.896
238.897
238.897
238.898
238.899
238.899
238.9
238.901
238.901
238.902
238.903
238.903
238.904
238.905
238.906
238.906
238.907
238.908
238.908
238.909
238.91
238.911
238.911
238.912
238.913
238.914
238.915
238.915
238.916
238.917
238.918
238.918
238.919
238.92
238.92
238.921
238.922
238.923
238.923
238.924
238.925
238.926
238.926
238.927
238.928
238.928
238.929
238.93
238.93
238.931
238.932
238.932
238.933
238.934
238.934
238.935
238.936
238.936
237.653
237.653
237.653
237.653
237.653
237.654
237.654
237.654
237.654
237.655
237.655
237.656
237.656
237.657
237.657
237.658
237.658
237.659
237.659
237.66
237.661
237.661
237.662
237.663
237.664
237.664
237.665
237.666
237.667
237.668
237.669
237.669
237.67
237.671
237.672
237.673
237.674
237.675
237.675
237.676
237.677
237.678
237.679
237.68
237.681
237.682
237.683
237.684
237.685
237.685
237.686
237.687
237.688
237.689
237.69
237.691
237.692
237.693
237.694
237.694
237.695
237.696
237.697
237.698
237.699
237.699
237.7
237.701
237.702
237.703
237.704
237.704
237.705
237.706
237.707
237.707
237.708
237.709
237.71
237.71
236.415
236.415
236.416
236.416
236.416
236.416
236.417
236.417
236.417
236.418
236.418
236.419
236.419
236.42
236.421
236.421
236.422
236.423
236.424
236.424
236.425
236.426
236.427
236.428
236.429
236.43
236.431
236.432
236.433
236.434
236.435
236.436
236.437
236.438
236.439
236.44
236.441
236.442
236.443
236.444
236.445
236.446
236.447
236.448
236.45
236.451
236.452
236.453
236.454
236.455
236.456
236.457
236.458
236.459
236.461
236.462
236.463
236.464
236.465
236.466
236.467
236.468
236.469
236.47
236.471
236.472
236.473
236.474
236.475
236.476
236.477
236.478
236.479
236.48
236.481
236.481
236.482
236.483
236.484
236.485
235.176
235.176
235.176
235.176
235.176
235.177
235.177
235.177
235.178
235.179
235.179
235.18
235.18
235.181
235.182
235.183
235.184
235.185
235.186
235.187
235.188
235.189
235.19
235.191
235.192
235.193
235.194
235.195
235.197
235.198
235.199
235.2
235.202
235.203
235.204
235.205
235.207
235.208
235.209
235.211
235.212
235.213
235.215
235.216
235.217
235.219
235.22
235.221
235.223
235.224
235.225
235.227
235.228
235.229
235.231
235.232
235.233
235.234
235.236
235.237
235.238
235.239
235.241
235.242
235.243
235.244
235.246
235.247
235.248
235.249
235.25
235.251
235.252
235.254
235.255
235.256
235.257
235.258
235.259
235.26
233.933
233.933
233.933
233.933
233.934
233.934
233.935
233.935
233.936
233.937
233.937
233.938
233.939
233.94
233.941
233.942
233.943
233.944
233.945
233.946
233.948
233.949
233.95
233.952
233.953
233.954
233.956
233.957
233.959
233.96
233.962
233.963
233.965
233.966
233.968
233.97
233.971
233.973
233.974
233.976
233.978
233.979
233.981
233.983
233.984
233.986
233.987
233.989
233.991
233.992
233.994
233.995
233.997
233.999
234
234.002
234.003
234.005
234.006
234.008
234.009
234.011
234.012
234.014
234.015
234.017
234.018
234.02
234.021
234.022
234.024
234.025
234.026
234.028
234.029
234.03
234.032
234.033
234.034
234.035
232.687
232.687
232.687
232.687
232.688
232.688
232.689
232.69
232.69
232.691
232.692
232.693
232.694
232.695
232.696
232.698
232.699
232.7
232.702
232.703
232.705
232.707
232.708
232.71
232.711
232.713
232.715
232.717
232.719
232.72
232.722
232.724
232.726
232.728
232.73
232.732
232.734
232.736
232.738
232.74
232.742
232.744
232.746
232.748
232.75
232.752
232.754
232.756
232.758
232.76
232.762
232.764
232.765
232.767
232.769
232.771
232.773
232.775
232.777
232.779
232.78
232.782
232.784
232.786
232.788
232.789
232.791
232.793
232.794
232.796
232.798
232.799
232.801
232.803
232.804
232.806
232.807
232.809
232.81
232.812
231.436
231.436
231.436
231.437
231.437
231.438
231.439
231.44
231.44
231.442
231.443
231.444
231.445
231.447
231.448
231.45
231.451
231.453
231.455
231.457
231.459
231.461
231.463
231.465
231.467
231.469
231.471
231.473
231.476
231.478
231.48
231.483
231.485
231.487
231.49
231.492
231.495
231.497
231.499
231.502
231.504
231.507
231.509
231.512
231.514
231.517
231.519
231.521
231.524
231.526
231.529
231.531
231.533
231.536
231.538
231.54
231.542
231.545
231.547
231.549
231.551
231.554
231.556
231.558
231.56
231.562
231.564
231.566
231.568
231.57
231.572
231.574
231.576
231.578
231.58
231.582
231.584
231.585
231.587
231.589
230.18
230.18
230.18
230.181
230.181
230.182
230.183
230.184
230.185
230.187
230.188
230.19
230.191
230.193
230.195
230.197
230.199
230.201
230.204
230.206
230.208
230.211
230.213
230.216
230.218
230.221
230.224
230.227
230.229
230.232
230.235
230.238
230.241
230.244
230.247
230.25
230.253
230.256
230.259
230.262
230.265
230.268
230.271
230.274
230.277
230.28
230.283
230.286
230.289
230.292
230.295
230.298
230.3
230.303
230.306
230.309
230.312
230.315
230.317
230.32
230.323
230.325
230.328
230.331
230.333
230.336
230.338
230.341
230.343
230.345
230.348
230.35
230.352
230.355
230.357
230.359
230.361
230.364
230.366
230.368
228.917
228.917
228.917
228.918
228.919
228.92
228.921
228.922
228.924
228.925
228.927
228.929
228.931
228.934
228.936
228.938
228.941
228.944
228.947
228.95
228.953
228.956
228.959
228.962
228.965
228.969
228.972
228.976
228.979
228.983
228.986
228.99
228.994
228.997
229.001
229.005
229.008
229.012
229.016
229.02
229.023
229.027
229.031
229.035
229.038
229.042
229.046
229.049
229.053
229.057
229.06
229.064
229.067
229.071
229.074
229.078
229.081
229.085
229.088
229.091
229.094
229.098
229.101
229.104
229.107
229.11
229.113
229.116
229.119
229.122
229.125
229.128
229.13
229.133
229.136
229.139
229.141
229.144
229.146
229.149
227.644
227.645
227.645
227.646
227.647
227.648
227.65
227.652
227.654
227.656
227.658
227.661
227.663
227.666
227.669
227.672
227.676
227.679
227.683
227.686
227.69
227.694
227.698
227.702
227.707
227.711
227.715
227.72
227.724
227.728
227.733
227.738
227.742
227.747
227.752
227.756
227.761
227.766
227.77
227.775
227.78
227.784
227.789
227.794
227.798
227.803
227.807
227.812
227.816
227.821
227.825
227.83
227.834
227.838
227.843
227.847
227.851
227.855
227.859
227.863
227.867
227.871
227.875
227.879
227.883
227.886
227.89
227.894
227.897
227.901
227.904
227.908
227.911
227.914
227.917
227.921
227.924
227.927
227.93
227.933
226.361
226.361
226.362
226.363
226.364
226.366
226.368
226.37
226.373
226.375
226.378
226.382
226.385
226.389
226.393
226.397
226.401
226.406
226.41
226.415
226.42
226.425
226.43
226.435
226.441
226.446
226.452
226.457
226.463
226.469
226.474
226.48
226.486
226.492
226.498
226.504
226.51
226.516
226.521
226.527
226.533
226.539
226.545
226.551
226.557
226.562
226.568
226.574
226.579
226.585
226.59
226.596
226.601
226.607
226.612
226.617
226.622
226.627
226.632
226.637
226.642
226.647
226.652
226.656
226.661
226.665
226.67
226.674
226.679
226.683
226.687
226.691
226.695
226.699
226.703
226.707
226.711
226.714
226.718
226.721
225.063
225.064
225.064
225.066
225.067
225.07
225.072
225.075
225.078
225.082
225.086
225.09
225.094
225.099
225.104
225.109
225.115
225.121
225.127
225.133
225.139
225.146
225.152
225.159
225.166
225.173
225.18
225.187
225.194
225.202
225.209
225.217
225.224
225.232
225.239
225.247
225.254
225.262
225.269
225.277
225.284
225.292
225.299
225.306
225.314
225.321
225.328
225.335
225.342
225.349
225.356
225.363
225.37
225.376
225.383
225.389
225.396
225.402
225.408
225.414
225.42
225.426
225.432
225.438
225.443
225.449
225.454
225.46
225.465
225.47
225.475
225.48
225.485
225.489
225.494
225.499
225.503
225.508
225.512
225.516
223.746
223.747
223.748
223.75
223.752
223.755
223.758
223.762
223.766
223.771
223.776
223.781
223.787
223.793
223.8
223.807
223.814
223.822
223.829
223.837
223.845
223.854
223.863
223.871
223.88
223.889
223.899
223.908
223.917
223.927
223.936
223.946
223.955
223.965
223.975
223.984
223.994
224.004
224.013
224.023
224.032
224.042
224.051
224.061
224.07
224.079
224.088
224.097
224.106
224.115
224.123
224.132
224.14
224.149
224.157
224.165
224.173
224.181
224.189
224.196
224.204
224.211
224.218
224.225
224.232
224.239
224.245
224.252
224.258
224.264
224.271
224.276
224.282
224.288
224.294
224.299
224.304
224.31
224.315
224.32
222.405
222.405
222.407
222.409
222.412
222.416
222.42
222.425
222.431
222.437
222.444
222.451
222.459
222.467
222.475
222.485
222.494
222.504
222.514
222.524
222.535
222.546
222.558
222.569
222.581
222.593
222.605
222.617
222.629
222.641
222.654
222.666
222.679
222.691
222.704
222.716
222.729
222.741
222.754
222.766
222.778
222.79
222.803
222.815
222.826
222.838
222.85
222.861
222.872
222.884
222.895
222.905
222.916
222.927
222.937
222.947
222.957
222.967
222.976
222.986
222.995
223.004
223.013
223.022
223.03
223.039
223.047
223.055
223.062
223.07
223.077
223.084
223.091
223.098
223.105
223.111
223.118
223.124
223.13
223.136
221.031
221.032
221.034
221.037
221.041
221.045
221.051
221.058
221.065
221.073
221.082
221.092
221.102
221.113
221.124
221.136
221.149
221.162
221.176
221.189
221.204
221.218
221.233
221.248
221.264
221.279
221.295
221.311
221.327
221.344
221.36
221.376
221.393
221.409
221.426
221.442
221.458
221.474
221.491
221.507
221.523
221.538
221.554
221.569
221.585
221.6
221.615
221.63
221.644
221.658
221.672
221.686
221.7
221.713
221.726
221.739
221.752
221.764
221.776
221.788
221.799
221.811
221.822
221.832
221.843
221.853
221.863
221.873
221.882
221.892
221.9
221.909
221.918
221.926
221.934
221.942
221.949
221.956
221.963
221.97
219.613
219.615
219.617
219.621
219.627
219.633
219.641
219.65
219.659
219.67
219.682
219.695
219.709
219.723
219.739
219.755
219.771
219.789
219.807
219.825
219.844
219.864
219.883
219.904
219.924
219.945
219.966
219.987
220.009
220.03
220.052
220.074
220.095
220.117
220.139
220.16
220.182
220.203
220.225
220.246
220.267
220.287
220.308
220.328
220.348
220.368
220.387
220.406
220.425
220.443
220.461
220.479
220.497
220.514
220.531
220.547
220.563
220.578
220.594
220.609
220.623
220.637
220.651
220.664
220.677
220.69
220.702
220.714
220.726
220.737
220.748
220.758
220.769
220.778
220.788
220.797
220.806
220.815
220.823
220.831
218.138
218.14
218.143
218.149
218.156
218.165
218.175
218.187
218.2
218.215
218.231
218.248
218.266
218.286
218.306
218.328
218.35
218.374
218.398
218.423
218.448
218.474
218.501
218.528
218.556
218.583
218.612
218.64
218.669
218.698
218.727
218.756
218.785
218.814
218.843
218.871
218.9
218.929
218.957
218.985
219.013
219.04
219.067
219.094
219.12
219.146
219.171
219.197
219.221
219.245
219.269
219.292
219.315
219.337
219.358
219.379
219.4
219.42
219.439
219.458
219.477
219.494
219.512
219.528
219.545
219.56
219.576
219.59
219.604
219.618
219.631
219.644
219.656
219.668
219.679
219.69
219.7
219.71
219.72
219.729
216.585
216.587
216.592
216.599
216.609
216.621
216.635
216.651
216.668
216.688
216.71
216.733
216.757
216.784
216.812
216.841
216.871
216.902
216.935
216.968
217.003
217.038
217.074
217.111
217.148
217.186
217.224
217.262
217.301
217.34
217.379
217.418
217.458
217.497
217.536
217.575
217.613
217.652
217.69
217.727
217.764
217.801
217.837
217.873
217.908
217.943
217.977
218.01
218.043
218.074
218.106
218.136
218.166
218.195
218.223
218.25
218.277
218.303
218.328
218.352
218.375
218.398
218.42
218.441
218.461
218.481
218.5
218.518
218.535
218.552
218.567
218.583
218.597
218.611
218.624
218.637
218.649
218.66
218.671
218.681
214.927
214.931
214.937
214.947
214.96
214.976
214.994
215.016
215.04
215.066
215.095
215.126
215.159
215.195
215.232
215.271
215.312
215.355
215.399
215.444
215.491
215.539
215.588
215.637
215.688
215.739
215.791
215.844
215.896
215.95
216.003
216.056
216.11
216.163
216.216
216.269
216.322
216.374
216.426
216.477
216.528
216.578
216.627
216.676
216.723
216.77
216.816
216.861
216.904
216.947
216.989
217.03
217.069
217.107
217.145
217.181
217.216
217.249
217.282
217.313
217.344
217.373
217.4
217.427
217.453
217.477
217.501
217.523
217.544
217.564
217.583
217.601
217.618
217.635
217.65
217.664
217.677
217.69
217.702
217.712
213.13
213.134
213.143
213.156
213.173
213.194
213.219
213.247
213.279
213.315
213.353
213.395
213.44
213.487
213.537
213.59
213.645
213.702
213.762
213.823
213.886
213.951
214.018
214.085
214.154
214.224
214.295
214.367
214.439
214.512
214.586
214.659
214.733
214.806
214.88
214.953
215.026
215.098
215.17
215.241
215.311
215.38
215.448
215.515
215.581
215.645
215.708
215.77
215.83
215.888
215.945
216.001
216.054
216.106
216.156
216.205
216.252
216.296
216.339
216.381
216.42
216.458
216.494
216.528
216.56
216.591
216.62
216.648
216.673
216.697
216.72
216.741
216.761
216.779
216.796
216.811
216.825
216.838
216.85
216.86
211.147
211.153
211.164
211.181
211.203
211.231
211.263
211.3
211.342
211.389
211.44
211.495
211.554
211.617
211.683
211.753
211.827
211.903
211.983
212.065
212.151
212.238
212.328
212.42
212.514
212.609
212.706
212.805
212.904
213.005
213.106
213.208
213.311
213.413
213.516
213.618
213.72
213.822
213.923
214.023
214.121
214.219
214.315
214.41
214.503
214.594
214.683
214.77
214.855
214.937
215.017
215.095
215.17
215.242
215.312
215.378
215.442
215.503
215.562
215.617
215.67
215.719
215.766
215.81
215.852
215.89
215.926
215.96
215.991
216.019
216.045
216.068
216.09
216.109
216.126
216.141
216.154
216.165
216.175
216.182
208.921
208.928
208.943
208.964
208.992
209.027
209.069
209.116
209.17
209.23
209.295
209.366
209.442
209.524
209.61
209.702
209.797
209.898
210.003
210.111
210.224
210.341
210.461
210.584
210.71
210.84
210.972
211.106
211.243
211.382
211.522
211.664
211.807
211.951
212.096
212.241
212.387
212.532
212.677
212.821
212.964
213.105
213.245
213.383
213.519
213.653
213.783
213.911
214.035
214.156
214.273
214.386
214.495
214.6
214.7
214.796
214.887
214.973
215.055
215.132
215.204
215.271
215.334
215.391
215.445
215.493
215.537
215.577
215.613
215.644
215.672
215.696
215.716
215.732
215.746
215.756
215.763
215.767
215.769
215.768
206.386
206.395
206.413
206.439
206.473
206.516
206.567
206.625
206.691
206.765
206.846
206.933
207.028
207.13
207.238
207.353
207.474
207.601
207.734
207.873
208.018
208.168
208.324
208.485
208.652
208.823
208.999
209.179
209.364
209.553
209.745
209.941
210.141
210.343
210.548
210.756
210.965
211.176
211.388
211.6
211.813
212.025
212.236
212.446
212.654
212.859
213.061
213.259
213.452
213.641
213.823
213.999
214.168
214.331
214.485
214.632
214.77
214.9
215.021
215.133
215.237
215.331
215.417
215.494
215.563
215.623
215.675
215.72
215.756
215.786
215.808
215.824
215.833
215.837
215.835
215.828
215.816
215.8
215.78
215.756
203.475
203.485
203.505
203.536
203.576
203.625
203.684
203.751
203.828
203.913
204.007
204.11
204.221
204.34
204.468
204.604
204.748
204.9
205.06
205.228
205.404
205.588
205.78
205.98
206.187
206.403
206.626
206.857
207.096
207.342
207.597
207.859
208.128
208.405
208.689
208.981
209.279
209.584
209.896
210.213
210.536
210.864
211.196
211.531
211.868
212.206
212.543
212.878
213.208
213.531
213.846
214.15
214.444
214.725
214.993
215.246
215.483
215.704
215.907
216.092
216.259
216.408
216.538
216.65
216.744
216.819
216.877
216.918
216.942
216.95
216.944
216.923
216.889
216.843
216.786
216.72
216.645
216.565
216.479
216.39
200.131
200.142
200.163
200.196
200.238
200.291
200.354
200.427
200.509
200.601
200.702
200.812
200.932
201.062
201.2
201.348
201.505
201.672
201.848
202.033
202.228
202.433
202.647
202.872
203.107
203.353
203.609
203.876
204.155
204.446
204.749
205.066
205.395
205.739
206.097
206.472
206.862
207.271
207.698
208.145
208.613
209.105
209.621
210.164
210.736
211.34
211.978
212.655
213.375
214.208
215.174
216.234
217.346
218.481
219.616
220.734
221.819
222.857
223.836
224.745
225.572
226.31
226.948
227.481
227.901
228.205
228.387
228.443
228.372
228.172
227.842
227.383
226.797
226.088
225.259
224.316
223.264
222.108
220.855
219.511
196.324
196.335
196.357
196.388
196.43
196.482
196.543
196.614
196.695
196.785
196.884
196.992
197.109
197.236
197.371
197.515
197.668
197.831
198.002
198.183
198.372
198.571
198.779
198.997
199.224
199.461
199.708
199.966
200.233
200.512
200.802
201.103
201.415
201.74
202.078
202.429
202.793
203.172
203.566
203.975
204.4
204.843
205.304
205.784
206.285
206.807
207.351
207.92
209.119
212.603
218.088
224.269
230.424
236.238
241.57
246.364
250.599
254.28
257.424
260.046
262.167
263.806
264.981
265.706
265.997
265.866
265.324
264.377
263.03
261.285
259.145
256.607
253.671
250.331
246.582
242.416
237.822
232.789
227.304
221.35
192.065
192.075
192.094
192.123
192.16
192.207
192.262
192.325
192.398
192.478
192.566
192.662
192.766
192.878
192.998
193.124
193.259
193.4
193.549
193.705
193.868
194.038
194.215
194.399
194.589
194.786
194.99
195.2
195.416
195.639
195.867
196.101
196.341
196.586
196.836
197.091
197.35
197.613
197.879
198.148
198.418
198.69
198.962
199.233
199.501
199.765
200.024
200.419
207.271
214.253
220.659
226.511
231.836
236.656
240.991
244.855
248.264
251.221
253.734
255.81
257.459
258.69
259.511
259.931
259.958
259.6
258.866
257.761
256.293
254.467
252.288
249.762
246.894
243.688
240.149
236.281
232.089
227.577
222.751
217.618
187.398
187.406
187.422
187.446
187.477
187.516
187.562
187.615
187.675
187.741
187.814
187.893
187.979
188.07
188.167
188.27
188.379
188.492
188.611
188.735
188.864
188.998
189.136
189.279
189.425
189.576
189.73
189.888
190.049
190.214
190.381
190.551
190.723
190.897
191.073
191.25
191.428
191.608
191.788
191.968
192.148
192.327
192.506
192.684
192.86
193.035
193.212
195.693
201.911
207.673
212.996
217.89
222.365
226.429
230.09
233.358
236.241
238.748
240.886
242.663
244.087
245.168
245.911
246.325
246.419
246.199
245.675
244.854
243.743
242.351
240.685
238.753
236.563
234.123
231.441
228.526
225.387
222.031
218.469
214.709
182.389
182.395
182.408
182.427
182.452
182.482
182.518
182.56
182.606
182.658
182.715
182.776
182.842
182.913
182.987
183.066
183.149
183.235
183.325
183.418
183.514
183.614
183.716
183.82
183.927
184.037
184.148
184.261
184.375
184.491
184.608
184.725
184.844
184.962