/*--------------------------------*- C++ -*----------------------------------*\
  =========                 |
  \\      /  F ield         | OpenFOAM: The Open Source CFD Toolbox
   \\    /   O peration     | Website:  https://openfoam.org
    \\  /    A nd           | Version:  8
     \\/     M anipulation  |
\*---------------------------------------------------------------------------*/
FoamFile
{
    version     2.0;
    format      ascii;
    class       surfaceScalarField;
    location    "2000";
    object      phi;
}
// * * * * * * * * * * * * * * * * * * * * * * * * * * * * * * * * * * * * * //

dimensions      [0 3 -1 0 0 0 0];

internalField   nonuniform List<scalar> 
25360
(
-2.13989e-10
2.13989e-10
-4.25949e-10
2.1196e-10
-6.35747e-10
2.09798e-10
-8.43256e-10
2.07509e-10
-1.04836e-09
2.05103e-10
-1.25094e-09
2.02586e-10
-1.45091e-09
1.99965e-10
-1.64816e-09
1.97249e-10
-1.8426e-09
1.94444e-10
-2.03416e-09
1.91557e-10
-2.22275e-09
1.88595e-10
-2.40832e-09
1.85563e-10
-2.59079e-09
1.82469e-10
-2.7701e-09
1.79318e-10
-2.94622e-09
1.76116e-10
-3.11909e-09
1.72869e-10
-3.28867e-09
1.69581e-10
-3.45493e-09
1.66258e-10
-3.61783e-09
1.62905e-10
-3.77736e-09
1.59527e-10
-3.93349e-09
1.56128e-10
-4.0862e-09
1.52712e-10
-4.23548e-09
1.49284e-10
-4.38133e-09
1.45848e-10
-4.52374e-09
1.42407e-10
-4.66271e-09
1.38965e-10
-4.79823e-09
1.35526e-10
-4.93032e-09
1.32092e-10
-5.05899e-09
1.28667e-10
-5.18424e-09
1.25253e-10
-5.3061e-09
1.21855e-10
-5.42457e-09
1.18473e-10
-5.53968e-09
1.1511e-10
-5.65145e-09
1.1177e-10
-5.7599e-09
1.08454e-10
-5.86507e-09
1.05163e-10
-5.96697e-09
1.01901e-10
-6.06564e-09
9.86688e-11
-6.16111e-09
9.54679e-11
-6.25341e-09
9.23001e-11
-6.34257e-09
8.91667e-11
-6.42864e-09
8.60692e-11
-6.51165e-09
8.30088e-11
-6.59164e-09
7.99865e-11
-6.66864e-09
7.70034e-11
-6.7427e-09
7.40605e-11
-6.81386e-09
7.11586e-11
-6.88216e-09
6.82985e-11
-6.94764e-09
6.54808e-11
-7.01035e-09
6.27062e-11
-7.07032e-09
5.99751e-11
-7.12761e-09
5.72881e-11
-7.18225e-09
5.46456e-11
-7.2343e-09
5.20477e-11
-7.2838e-09
4.94949e-11
-7.33078e-09
4.69873e-11
-7.37531e-09
4.45251e-11
-7.41742e-09
4.21084e-11
-7.45716e-09
3.97372e-11
-7.49457e-09
3.74115e-11
-7.5297e-09
3.51313e-11
-7.5626e-09
3.28965e-11
-7.5933e-09
3.0707e-11
-7.62186e-09
2.85625e-11
-7.64833e-09
2.6463e-11
-7.67274e-09
2.44081e-11
-7.69513e-09
2.23976e-11
-7.71556e-09
2.04312e-11
-7.73407e-09
1.85086e-11
-7.7507e-09
1.66294e-11
-7.7655e-09
1.47934e-11
-7.7785e-09
1.3e-11
-7.78974e-09
1.12488e-11
-7.79928e-09
9.53954e-12
-7.80716e-09
7.87164e-12
-7.8134e-09
6.24466e-12
-7.81806e-09
4.65814e-12
-7.82117e-09
3.11157e-12
-7.82277e-09
1.60446e-12
1.36287e-13
-7.82291e-09
-2.20697e-10
4.34685e-10
-4.39302e-10
4.30565e-10
-6.55676e-10
4.26172e-10
-8.69689e-10
4.21523e-10
-1.08122e-09
4.16633e-10
-1.29015e-09
4.11519e-10
-1.49638e-09
4.06195e-10
-1.69981e-09
4.00676e-10
-1.90034e-09
3.94976e-10
-2.09789e-09
3.8911e-10
-2.29239e-09
3.83091e-10
-2.48376e-09
3.76931e-10
-2.67193e-09
3.70644e-10
-2.85686e-09
3.64241e-10
-3.03847e-09
3.57734e-10
-3.21674e-09
3.51135e-10
-3.39161e-09
3.44455e-10
-3.56306e-09
3.37703e-10
-3.73104e-09
3.3089e-10
-3.89554e-09
3.24025e-10
-4.05653e-09
3.17118e-10
-4.214e-09
3.10178e-10
-4.36793e-09
3.03212e-10
-4.51831e-09
2.9623e-10
-4.66514e-09
2.89238e-10
-4.80842e-09
2.82244e-10
-4.94815e-09
2.75255e-10
-5.08433e-09
2.68278e-10
-5.21698e-09
2.61318e-10
-5.34611e-09
2.54382e-10
-5.47173e-09
2.47476e-10
-5.59387e-09
2.40605e-10
-5.71253e-09
2.33773e-10
-5.82774e-09
2.26986e-10
-5.93954e-09
2.20248e-10
-6.04794e-09
2.13562e-10
-6.15297e-09
2.06934e-10
-6.25467e-09
2.00367e-10
-6.35306e-09
1.93863e-10
-6.44819e-09
1.87427e-10
-6.54008e-09
1.81061e-10
-6.62878e-09
1.74768e-10
-6.71433e-09
1.6855e-10
-6.79675e-09
1.6241e-10
-6.8761e-09
1.5635e-10
-6.95241e-09
1.50371e-10
-7.02572e-09
1.44476e-10
-7.09609e-09
1.38666e-10
-7.16355e-09
1.32941e-10
-7.22815e-09
1.27305e-10
-7.28993e-09
1.21757e-10
-7.34894e-09
1.16299e-10
-7.40523e-09
1.1093e-10
-7.45883e-09
1.05653e-10
-7.50981e-09
1.00468e-10
-7.55819e-09
9.53742e-11
-7.60404e-09
9.03728e-11
-7.6474e-09
8.54639e-11
-7.68831e-09
8.06475e-11
-7.72682e-09
7.59236e-11
-7.76298e-09
7.12922e-11
-7.79684e-09
6.67531e-11
-7.82843e-09
6.23059e-11
-7.85782e-09
5.79504e-11
-7.88505e-09
5.36861e-11
-7.91015e-09
4.95127e-11
-7.93318e-09
4.54295e-11
-7.95419e-09
4.14359e-11
-7.97321e-09
3.75313e-11
-7.9903e-09
3.3715e-11
-8.00549e-09
2.99862e-11
-8.01883e-09
2.63442e-11
-8.03037e-09
2.2788e-11
-8.04015e-09
1.93169e-11
-8.04821e-09
1.59299e-11
-8.05459e-09
1.2626e-11
-8.05933e-09
9.40435e-12
-8.06249e-09
6.26388e-12
-8.06409e-09
3.20357e-12
2.22388e-13
-8.06417e-09
-2.34334e-10
6.69019e-10
-4.66446e-10
6.62677e-10
-6.96189e-10
6.55915e-10
-9.23423e-10
6.48757e-10
-1.14802e-09
6.41229e-10
-1.36986e-09
6.33355e-10
-1.58882e-09
6.25158e-10
-1.8048e-09
6.1666e-10
-2.01771e-09
6.07884e-10
-2.22745e-09
5.98851e-10
-2.43394e-09
5.89582e-10
-2.63711e-09
5.80097e-10
-2.83688e-09
5.70415e-10
-3.03319e-09
5.60555e-10
-3.226e-09
5.50536e-10
-3.41523e-09
5.40374e-10
-3.60087e-09
5.30086e-10
-3.78285e-09
5.19688e-10
-3.96116e-09
5.09196e-10
-4.13576e-09
4.98625e-10
-4.30663e-09
4.87989e-10
-4.47375e-09
4.77301e-10
-4.63712e-09
4.66575e-10
-4.79671e-09
4.55822e-10
-4.95253e-09
4.45055e-10
-5.10457e-09
4.34286e-10
-5.25284e-09
4.23524e-10
-5.39734e-09
4.12779e-10
-5.53808e-09
4.02063e-10
-5.67508e-09
3.91383e-10
-5.80836e-09
3.80749e-10
-5.93792e-09
3.70169e-10
-6.0638e-09
3.59649e-10
-6.18601e-09
3.49199e-10
-6.30459e-09
3.38824e-10
-6.41956e-09
3.28531e-10
-6.53095e-09
3.18326e-10
-6.6388e-09
3.08215e-10
-6.74313e-09
2.98202e-10
-6.844e-09
2.88294e-10
-6.94143e-09
2.78493e-10
-7.03547e-09
2.68805e-10
-7.12615e-09
2.59233e-10
-7.21352e-09
2.4978e-10
-7.29762e-09
2.40451e-10
-7.3785e-09
2.31248e-10
-7.4562e-09
2.22173e-10
-7.53076e-09
2.13229e-10
-7.60223e-09
2.04418e-10
-7.67067e-09
1.95742e-10
-7.73612e-09
1.87203e-10
-7.79862e-09
1.78801e-10
-7.85823e-09
1.70539e-10
-7.91499e-09
1.62417e-10
-7.96896e-09
1.54436e-10
-8.02018e-09
1.46597e-10
-8.06871e-09
1.389e-10
-8.11459e-09
1.31346e-10
-8.15788e-09
1.23934e-10
-8.19862e-09
1.16664e-10
-8.23686e-09
1.09537e-10
-8.27266e-09
1.02553e-10
-8.30607e-09
9.57095e-11
-8.33712e-09
8.90076e-11
-8.36588e-09
8.24464e-11
-8.3924e-09
7.6025e-11
-8.41671e-09
6.97426e-11
-8.43887e-09
6.35983e-11
-8.45893e-09
5.7591e-11
-8.47694e-09
5.17198e-11
-8.49293e-09
4.59833e-11
-8.50697e-09
4.03805e-11
-8.51909e-09
3.49099e-11
-8.52935e-09
2.95703e-11
-8.53778e-09
2.43602e-11
-8.54443e-09
1.92781e-11
-8.54935e-09
1.43227e-11
-8.55258e-09
9.49219e-12
-8.55416e-09
4.78517e-12
1.99975e-13
-8.55413e-09
-2.55349e-10
9.24368e-10
-5.08275e-10
9.15604e-10
-7.58619e-10
9.06258e-10
-1.00623e-09
8.96365e-10
-1.25096e-09
8.8596e-10
-1.49268e-09
8.75074e-10
-1.73126e-09
8.63742e-10
-1.96659e-09
8.51993e-10
-2.19857e-09
8.3986e-10
-2.42709e-09
8.27371e-10
-2.65206e-09
8.14555e-10
-2.87341e-09
8.0144e-10
-3.09104e-09
7.88053e-10
-3.30491e-09
7.74419e-10
-3.51494e-09
7.60564e-10
-3.72107e-09
7.46513e-10
-3.92328e-09
7.32287e-10
-4.1215e-09
7.17909e-10
-4.3157e-09
7.03401e-10
-4.50586e-09
6.88783e-10
-4.69195e-09
6.74076e-10
-4.87394e-09
6.59297e-10
-5.05183e-09
6.44465e-10
-5.22561e-09
6.29597e-10
-5.39526e-09
6.14709e-10
-5.56079e-09
5.99818e-10
-5.72221e-09
5.84937e-10
-5.87951e-09
5.70082e-10
-6.03271e-09
5.55265e-10
-6.18183e-09
5.40499e-10
-6.32687e-09
5.25796e-10
-6.46787e-09
5.11168e-10
-6.60485e-09
4.96625e-10
-6.73782e-09
4.82177e-10
-6.86683e-09
4.67834e-10
-6.99191e-09
4.53605e-10
-7.11308e-09
4.39498e-10
-7.23038e-09
4.2552e-10
-7.34386e-09
4.11679e-10
-7.45355e-09
3.97983e-10
-7.55949e-09
3.84436e-10
-7.66173e-09
3.71045e-10
-7.76032e-09
3.57814e-10
-7.85528e-09
3.4475e-10
-7.94669e-09
3.31856e-10
-8.03458e-09
3.19137e-10
-8.119e-09
3.06595e-10
-8.20001e-09
2.94235e-10
-8.27765e-09
2.82059e-10
-8.35198e-09
2.7007e-10
-8.42305e-09
2.58271e-10
-8.49091e-09
2.46662e-10
-8.55561e-09
2.35246e-10
-8.61722e-09
2.24024e-10
-8.67578e-09
2.12997e-10
-8.73135e-09
2.02167e-10
-8.78399e-09
1.91533e-10
-8.83374e-09
1.81097e-10
-8.88066e-09
1.70858e-10
-8.92481e-09
1.60816e-10
-8.96625e-09
1.50971e-10
-9.00502e-09
1.41323e-10
-9.04118e-09
1.31872e-10
-9.07479e-09
1.22615e-10
-9.10589e-09
1.13553e-10
-9.13455e-09
1.04685e-10
-9.16082e-09
9.60086e-11
-9.18475e-09
8.75235e-11
-9.20638e-09
7.92279e-11
-9.22578e-09
7.11205e-11
-9.243e-09
6.31995e-11
-9.25808e-09
5.54633e-11
-9.27108e-09
4.791e-11
-9.28205e-09
4.05378e-11
-9.29103e-09
3.33448e-11
-9.29808e-09
2.63287e-11
-9.30325e-09
1.94877e-11
-9.30658e-09
1.28196e-11
-9.30811e-09
6.3221e-12
-6.9767e-15
-9.30791e-09
-2.84437e-10
1.2088e-09
-5.66174e-10
1.19734e-09
-8.45032e-10
1.18512e-09
-1.12084e-09
1.17217e-09
-1.39344e-09
1.15856e-09
-1.66268e-09
1.14431e-09
-1.92842e-09
1.12948e-09
-2.19053e-09
1.11411e-09
-2.44889e-09
1.09823e-09
-2.7034e-09
1.08188e-09
-2.95395e-09
1.0651e-09
-3.20044e-09
1.04794e-09
-3.4428e-09
1.03041e-09
-3.68095e-09
1.01256e-09
-3.91481e-09
9.94426e-10
-4.14433e-09
9.76031e-10
-4.36945e-09
9.57408e-10
-4.59012e-09
9.38586e-10
-4.80632e-09
9.19593e-10
-5.01799e-09
9.00457e-10
-5.22512e-09
8.81203e-10
-5.42768e-09
8.61857e-10
-5.62565e-09
8.4244e-10
-5.81903e-09
8.22977e-10
-6.00781e-09
8.03489e-10
-6.19199e-09
7.83996e-10
-6.37157e-09
7.64517e-10
-6.54656e-09
7.45072e-10
-6.71697e-09
7.25677e-10
-6.88282e-09
7.0635e-10
-7.04413e-09
6.87106e-10
-7.20093e-09
6.6796e-10
-7.35323e-09
6.48927e-10
-7.50107e-09
6.30018e-10
-7.64448e-09
6.11248e-10
-7.78351e-09
5.92626e-10
-7.91817e-09
5.74165e-10
-8.04853e-09
5.55875e-10
-8.17461e-09
5.37764e-10
-8.29647e-09
5.19842e-10
-8.41415e-09
5.02117e-10
-8.5277e-09
4.84596e-10
-8.63718e-09
4.67287e-10
-8.74262e-09
4.50195e-10
-8.84409e-09
4.33327e-10
-8.94164e-09
4.16688e-10
-9.03533e-09
4.00282e-10
-9.12521e-09
3.84114e-10
-9.21134e-09
3.68188e-10
-9.29377e-09
3.52507e-10
-9.37258e-09
3.37075e-10
-9.44781e-09
3.21892e-10
-9.51953e-09
3.06963e-10
-9.58779e-09
2.92288e-10
-9.65266e-09
2.77869e-10
-9.7142e-09
2.63708e-10
-9.77247e-09
2.49804e-10
-9.82753e-09
2.36159e-10
-9.87945e-09
2.22772e-10
-9.92828e-09
2.09644e-10
-9.97408e-09
1.96774e-10
-1.00169e-08
1.84162e-10
-1.00569e-08
1.71807e-10
-1.00939e-08
1.59708e-10
-1.01283e-08
1.47864e-10
-1.01598e-08
1.36274e-10
-1.01888e-08
1.24935e-10
-1.02151e-08
1.13846e-10
-1.02389e-08
1.03006e-10
-1.02602e-08
9.24122e-11
-1.0279e-08
8.20625e-11
-1.02955e-08
7.19547e-11
-1.03097e-08
6.20865e-11
-1.03216e-08
5.24553e-11
-1.03313e-08
4.30586e-11
-1.03389e-08
3.38937e-11
-1.03444e-08
2.49579e-11
-1.03478e-08
1.62484e-11
-1.03492e-08
7.76216e-12
-5.03629e-13
-1.03487e-08
-3.22566e-10
1.53137e-09
-6.4207e-10
1.51685e-09
-9.58305e-10
1.50135e-09
-1.27108e-09
1.48494e-09
-1.5802e-09
1.46768e-09
-1.88551e-09
1.44962e-09
-2.18684e-09
1.43081e-09
-2.48405e-09
1.41132e-09
-2.777e-09
1.39117e-09
-3.06556e-09
1.37044e-09
-3.34962e-09
1.34916e-09
-3.62907e-09
1.32739e-09
-3.90382e-09
1.30516e-09
-4.17377e-09
1.28252e-09
-4.43886e-09
1.25951e-09
-4.699e-09
1.23617e-09
-4.95414e-09
1.21255e-09
-5.20423e-09
1.18867e-09
-5.44921e-09
1.16458e-09
-5.68905e-09
1.1403e-09
-5.92373e-09
1.11588e-09
-6.15321e-09
1.09133e-09
-6.37747e-09
1.0667e-09
-6.59651e-09
1.04201e-09
-6.81031e-09
1.01729e-09
-7.01888e-09
9.92568e-10
-7.22223e-09
9.6786e-10
-7.42035e-09
9.43196e-10
-7.61327e-09
9.18597e-10
-7.801e-09
8.94084e-10
-7.98358e-09
8.69677e-10
-8.16101e-09
8.45396e-10
-8.33334e-09
8.21257e-10
-8.5006e-09
7.97279e-10
-8.66283e-09
7.73476e-10
-8.82007e-09
7.49864e-10
-8.97236e-09
7.26456e-10
-9.11975e-09
7.03265e-10
-9.26229e-09
6.80303e-10
-9.40003e-09
6.57581e-10
-9.53302e-09
6.3511e-10
-9.66132e-09
6.129e-10
-9.78499e-09
5.90958e-10
-9.90409e-09
5.69294e-10
-1.00187e-08
5.47914e-10
-1.01288e-08
5.26825e-10
-1.02346e-08
5.06033e-10
-1.0336e-08
4.85544e-10
-1.04332e-08
4.65363e-10
-1.05262e-08
4.45493e-10
-1.0615e-08
4.25938e-10
-1.06998e-08
4.06703e-10
-1.07807e-08
3.87788e-10
-1.08576e-08
3.69197e-10
-1.09306e-08
3.50932e-10
-1.09999e-08
3.32994e-10
-1.10655e-08
3.15383e-10
-1.11274e-08
2.98101e-10
-1.11858e-08
2.81147e-10
-1.12407e-08
2.64522e-10
-1.12921e-08
2.48225e-10
-1.13402e-08
2.32255e-10
-1.1385e-08
2.16612e-10
-1.14266e-08
2.01294e-10
-1.14651e-08
1.86299e-10
-1.15004e-08
1.71627e-10
-1.15327e-08
1.57274e-10
-1.15621e-08
1.43239e-10
-1.15887e-08
1.29519e-10
-1.16124e-08
1.16111e-10
-1.16333e-08
1.03014e-10
-1.16516e-08
9.0223e-11
-1.16672e-08
7.77364e-11
-1.16803e-08
6.55506e-11
-1.16909e-08
5.36623e-11
-1.16991e-08
4.2068e-11
-1.17049e-08
3.07643e-11
-1.17084e-08
1.97476e-11
-1.17097e-08
9.01412e-12
-1.43985e-12
-1.17087e-08
-3.71019e-10
1.90239e-09
-7.38513e-10
1.88434e-09
-1.10224e-09
1.86508e-09
-1.46198e-09
1.84468e-09
-1.81752e-09
1.82322e-09
-2.16866e-09
1.80076e-09
-2.51521e-09
1.77737e-09
-2.857e-09
1.75311e-09
-3.19389e-09
1.72806e-09
-3.52571e-09
1.70226e-09
-3.85233e-09
1.67579e-09
-4.17364e-09
1.64869e-09
-4.48952e-09
1.62103e-09
-4.79986e-09
1.59286e-09
-5.10459e-09
1.56423e-09
-5.40361e-09
1.53519e-09
-5.69685e-09
1.50579e-09
-5.98426e-09
1.47608e-09
-6.26579e-09
1.4461e-09
-6.54138e-09
1.41589e-09
-6.811e-09
1.3855e-09
-7.07462e-09
1.35496e-09
-7.33222e-09
1.32431e-09
-7.58379e-09
1.29359e-09
-7.82933e-09
1.26283e-09
-8.06882e-09
1.23206e-09
-8.30228e-09
1.20132e-09
-8.52971e-09
1.17063e-09
-8.75115e-09
1.14003e-09
-8.96659e-09
1.10953e-09
-9.17609e-09
1.07917e-09
-9.37965e-09
1.04896e-09
-9.57734e-09
1.01894e-09
-9.76917e-09
9.89112e-10
-9.9552e-09
9.59507e-10
-1.01355e-08
9.30139e-10
-1.031e-08
9.01028e-10
-1.0479e-08
8.72187e-10
-1.06423e-08
8.43634e-10
-1.08001e-08
8.15381e-10
-1.09524e-08
7.87441e-10
-1.10994e-08
7.59827e-10
-1.1241e-08
7.32549e-10
-1.13773e-08
7.05617e-10
-1.15084e-08
6.7904e-10
-1.16344e-08
6.52828e-10
-1.17554e-08
6.26986e-10
-1.18713e-08
6.01522e-10
-1.19824e-08
5.76442e-10
-1.20887e-08
5.51751e-10
-1.21902e-08
5.27454e-10
-1.2287e-08
5.03555e-10
-1.23793e-08
4.80056e-10
-1.24671e-08
4.56961e-10
-1.25504e-08
4.34272e-10
-1.26294e-08
4.11991e-10
-1.27041e-08
3.90119e-10
-1.27747e-08
3.68656e-10
-1.28412e-08
3.47603e-10
-1.29036e-08
3.26959e-10
-1.29621e-08
3.06724e-10
-1.30167e-08
2.86898e-10
-1.30676e-08
2.67478e-10
-1.31148e-08
2.48463e-10
-1.31583e-08
2.29852e-10
-1.31983e-08
2.11641e-10
-1.32349e-08
1.93829e-10
-1.32681e-08
1.76412e-10
-1.32979e-08
1.59388e-10
-1.33246e-08
1.42753e-10
-1.33481e-08
1.26504e-10
-1.33685e-08
1.10637e-10
-1.33859e-08
9.5148e-11
-1.34004e-08
8.00338e-11
-1.3412e-08
6.52898e-11
-1.34208e-08
5.09116e-11
-1.3427e-08
3.68951e-11
-1.34305e-08
2.32355e-11
-1.34314e-08
9.92824e-12
-3.03133e-12
-1.34298e-08
-4.3144e-10
2.33383e-09
-8.58778e-10
2.31168e-09
-1.28173e-09
2.28803e-09
-1.70004e-09
2.26299e-09
-2.11345e-09
2.23663e-09
-2.52172e-09
2.20904e-09
-2.92465e-09
2.1803e-09
-3.32204e-09
2.15049e-09
-3.71368e-09
2.1197e-09
-4.09942e-09
2.088e-09
-4.4791e-09
2.05546e-09
-4.85257e-09
2.02216e-09
-5.21969e-09
1.98816e-09
-5.58036e-09
1.95353e-09
-5.93446e-09
1.91834e-09
-6.28191e-09
1.88264e-09
-6.62261e-09
1.8465e-09
-6.95649e-09
1.80997e-09
-7.2835e-09
1.77311e-09
-7.60358e-09
1.73597e-09
-7.91669e-09
1.69861e-09
-8.2228e-09
1.66106e-09
-8.52188e-09
1.62339e-09
-8.81391e-09
1.58562e-09
-9.0989e-09
1.54781e-09
-9.37683e-09
1.50999e-09
-9.64772e-09
1.47221e-09
-9.91158e-09
1.43449e-09
-1.01684e-08
1.39688e-09
-1.04183e-08
1.3594e-09
-1.06612e-08
1.32209e-09
-1.08972e-08
1.28497e-09
-1.11264e-08
1.24807e-09
-1.13487e-08
1.21143e-09
-1.15642e-08
1.17505e-09
-1.17731e-08
1.13897e-09
-1.19752e-08
1.10321e-09
-1.21708e-08
1.06779e-09
-1.23599e-08
1.03271e-09
-1.25425e-08
9.98013e-10
-1.27188e-08
9.637e-10
-1.28888e-08
9.2979e-10
-1.30525e-08
8.96294e-10
-1.32101e-08
8.63226e-10
-1.33617e-08
8.30598e-10
-1.35073e-08
7.98418e-10
-1.3647e-08
7.66697e-10
-1.37809e-08
7.35442e-10
-1.39091e-08
7.04661e-10
-1.40317e-08
6.7436e-10
-1.41488e-08
6.44544e-10
-1.42605e-08
6.1522e-10
-1.43668e-08
5.8639e-10
-1.44679e-08
5.58057e-10
-1.45639e-08
5.30226e-10
-1.46548e-08
5.02896e-10
-1.47407e-08
4.76071e-10
-1.48218e-08
4.4975e-10
-1.48982e-08
4.23935e-10
-1.49698e-08
3.98624e-10
-1.50369e-08
3.73816e-10
-1.50995e-08
3.49512e-10
-1.51578e-08
3.25708e-10
-1.52117e-08
3.02403e-10
-1.52614e-08
2.79594e-10
-1.53071e-08
2.57279e-10
-1.53487e-08
2.35454e-10
-1.53864e-08
2.14116e-10
-1.54203e-08
1.93261e-10
-1.54504e-08
1.72885e-10
-1.54769e-08
1.52983e-10
-1.54998e-08
1.33551e-10
-1.55192e-08
1.14585e-10
-1.55353e-08
9.60794e-11
-1.5548e-08
7.80286e-11
-1.55575e-08
6.04277e-11
-1.55639e-08
4.32711e-11
-1.55672e-08
2.65532e-11
-1.55676e-08
1.02684e-11
-5.58935e-12
-1.5565e-08
-5.05909e-10
2.83974e-09
-1.00701e-09
2.81277e-09
-1.50295e-09
2.78398e-09
-1.99344e-09
2.75347e-09
-2.47816e-09
2.72135e-09
-2.95685e-09
2.68773e-09
-3.42925e-09
2.6527e-09
-3.89511e-09
2.61636e-09
-4.35423e-09
2.57882e-09
-4.80639e-09
2.54016e-09
-5.25141e-09
2.50048e-09
-5.68911e-09
2.45986e-09
-6.11934e-09
2.41839e-09
-6.54196e-09
2.37615e-09
-6.95685e-09
2.33322e-09
-7.36389e-09
2.28968e-09
-7.76298e-09
2.24559e-09
-8.15404e-09
2.20103e-09
-8.537e-09
2.15607e-09
-8.91179e-09
2.11076e-09
-9.27837e-09
2.06518e-09
-9.63669e-09
2.01939e-09
-9.98674e-09
1.97343e-09
-1.03285e-08
1.92737e-09
-1.06619e-08
1.88125e-09
-1.09871e-08
1.83513e-09
-1.13039e-08
1.78904e-09
-1.16124e-08
1.74305e-09
-1.19127e-08
1.69718e-09
-1.22048e-08
1.65148e-09
-1.24887e-08
1.60598e-09
-1.27645e-08
1.56073e-09
-1.30321e-08
1.51575e-09
-1.32918e-08
1.47107e-09
-1.35435e-08
1.42673e-09
-1.37872e-08
1.38276e-09
-1.40232e-08
1.33917e-09
-1.42514e-08
1.296e-09
-1.4472e-08
1.25326e-09
-1.46849e-08
1.21098e-09
-1.48904e-08
1.16917e-09
-1.50885e-08
1.12786e-09
-1.52792e-08
1.08706e-09
-1.54628e-08
1.04678e-09
-1.56392e-08
1.00704e-09
-1.58087e-08
9.67854e-10
-1.59712e-08
9.29229e-10
-1.61269e-08
8.91175e-10
-1.6276e-08
8.53701e-10
-1.64184e-08
8.16816e-10
-1.65544e-08
7.80526e-10
-1.6684e-08
7.44838e-10
-1.68074e-08
7.09754e-10
-1.69246e-08
6.75281e-10
-1.70358e-08
6.4142e-10
-1.71411e-08
6.08174e-10
-1.72406e-08
5.75545e-10
-1.73343e-08
5.43533e-10
-1.74225e-08
5.12139e-10
-1.75053e-08
4.81362e-10
-1.75827e-08
4.51202e-10
-1.76548e-08
4.21656e-10
-1.77218e-08
3.92722e-10
-1.77838e-08
3.64397e-10
-1.78409e-08
3.3668e-10
-1.78932e-08
3.09565e-10
-1.79408e-08
2.83049e-10
-1.79838e-08
2.57127e-10
-1.80223e-08
2.31796e-10
-1.80565e-08
2.07049e-10
-1.80864e-08
1.82882e-10
-1.81121e-08
1.59288e-10
-1.81338e-08
1.36262e-10
-1.81515e-08
1.13798e-10
-1.81654e-08
9.18893e-11
-1.81755e-08
7.05291e-11
-1.81819e-08
4.97108e-11
-1.81848e-08
2.94275e-11
-1.81842e-08
9.67207e-12
-9.56267e-12
-1.81802e-08
-5.97033e-10
3.43677e-09
-1.18838e-09
3.40412e-09
-1.77364e-09
3.36924e-09
-2.35243e-09
3.33227e-09
-2.92441e-09
3.29333e-09
-3.48924e-09
3.25255e-09
-4.04661e-09
3.21007e-09
-4.59624e-09
3.16599e-09
-5.13787e-09
3.12045e-09
-5.67124e-09
3.07354e-09
-6.19615e-09
3.02538e-09
-6.71237e-09
2.97609e-09
-7.21973e-09
2.92575e-09
-7.71806e-09
2.87448e-09
-8.20721e-09
2.82237e-09
-8.68704e-09
2.76951e-09
-9.15744e-09
2.71599e-09
-9.61831e-09
2.6619e-09
-1.00696e-08
2.60731e-09
-1.05111e-08
2.55232e-09
-1.09429e-08
2.49699e-09
-1.13649e-08
2.4414e-09
-1.17771e-08
2.38562e-09
-1.21795e-08
2.3297e-09
-1.25719e-08
2.27373e-09
-1.29546e-08
2.21775e-09
-1.33273e-08
2.16182e-09
-1.36903e-08
2.106e-09
-1.40435e-08
2.05034e-09
-1.43869e-08
1.99489e-09
-1.47206e-08
1.93969e-09
-1.50446e-08
1.88479e-09
-1.53591e-08
1.83022e-09
-1.56641e-08
1.77603e-09
-1.59596e-08
1.72226e-09
-1.62458e-08
1.66892e-09
-1.65227e-08
1.61607e-09
-1.67904e-08
1.56372e-09
-1.70491e-08
1.51191e-09
-1.72987e-08
1.46065e-09
-1.75395e-08
1.40998e-09
-1.77716e-08
1.3599e-09
-1.7995e-08
1.31046e-09
-1.82099e-08
1.26165e-09
-1.84163e-08
1.21351e-09
-1.86145e-08
1.16603e-09
-1.88045e-08
1.11925e-09
-1.89865e-08
1.07316e-09
-1.91606e-08
1.02778e-09
-1.93269e-08
9.83113e-10
-1.94855e-08
9.39177e-10
-1.96367e-08
8.95974e-10
-1.97804e-08
8.5351e-10
-1.99169e-08
8.11789e-10
-2.00463e-08
7.70816e-10
-2.01687e-08
7.30591e-10
-2.02843e-08
6.91119e-10
-2.03932e-08
6.52398e-10
-2.04955e-08
6.1443e-10
-2.05913e-08
5.77213e-10
-2.06809e-08
5.40747e-10
-2.07642e-08
5.05028e-10
-2.08416e-08
4.70055e-10
-2.0913e-08
4.35823e-10
-2.09786e-08
4.02329e-10
-2.10386e-08
3.69569e-10
-2.10931e-08
3.37537e-10
-2.11422e-08
3.06227e-10
-2.11861e-08
2.75635e-10
-2.12248e-08
2.45753e-10
-2.12585e-08
2.16575e-10
-2.12873e-08
1.88094e-10
-2.13113e-08
1.60303e-10
-2.13307e-08
1.33194e-10
-2.13456e-08
1.06758e-10
-2.1356e-08
8.09893e-11
-2.13622e-08
5.58777e-11
-2.13642e-08
3.14154e-11
-2.13621e-08
7.59337e-12
-1.55971e-11
-2.13561e-08
-7.08061e-10
4.14483e-09
-1.40937e-09
4.10543e-09
-2.10344e-09
4.06331e-09
-2.78982e-09
4.01865e-09
-3.46809e-09
3.97159e-09
-4.13784e-09
3.92231e-09
-4.79871e-09
3.87094e-09
-5.45035e-09
3.81763e-09
-6.09244e-09
3.76254e-09
-6.7247e-09
3.70579e-09
-7.34684e-09
3.64752e-09
-7.95862e-09
3.58787e-09
-8.55983e-09
3.52696e-09
-9.15025e-09
3.46491e-09
-9.72971e-09
3.40183e-09
-1.02981e-08
3.33785e-09
-1.08551e-08
3.27307e-09
-1.14008e-08
3.20759e-09
-1.1935e-08
3.14152e-09
-1.24577e-08
3.07496e-09
-1.29687e-08
3.00799e-09
-1.3468e-08
2.9407e-09
-1.39556e-08
2.87319e-09
-1.44314e-08
2.80552e-09
-1.48954e-08
2.73778e-09
-1.53477e-08
2.67004e-09
-1.57883e-08
2.60237e-09
-1.62171e-08
2.53483e-09
-1.66342e-08
2.46749e-09
-1.70397e-08
2.4004e-09
-1.74337e-08
2.33363e-09
-1.78161e-08
2.26722e-09
-1.81871e-08
2.20123e-09
-1.85468e-08
2.1357e-09
-1.88952e-08
2.07068e-09
-1.92325e-08
2.0062e-09
-1.95587e-08
1.9423e-09
-1.9874e-08
1.87902e-09
-2.01785e-08
1.8164e-09
-2.04723e-08
1.75446e-09
-2.07556e-08
1.69323e-09
-2.10284e-08
1.63274e-09
-2.1291e-08
1.57301e-09
-2.15434e-08
1.51406e-09
-2.17858e-08
1.45592e-09
-2.20184e-08
1.3986e-09
-2.22412e-08
1.34211e-09
-2.24545e-08
1.28648e-09
-2.26585e-08
1.23171e-09
-2.28532e-08
1.17781e-09
-2.30388e-08
1.1248e-09
-2.32155e-08
1.07268e-09
-2.33834e-08
1.02146e-09
-2.35428e-08
9.71145e-10
-2.36937e-08
9.21738e-10
-2.38364e-08
8.73243e-10
-2.39709e-08
8.25662e-10
-2.40975e-08
7.78995e-10
-2.42163e-08
7.33242e-10
-2.43275e-08
6.88403e-10
-2.44312e-08
6.44474e-10
-2.45277e-08
6.01454e-10
-2.4617e-08
5.59339e-10
-2.46993e-08
5.18123e-10
-2.47747e-08
4.77804e-10
-2.48435e-08
4.38373e-10
-2.49058e-08
3.99826e-10
-2.49618e-08
3.62156e-10
-2.50115e-08
3.25354e-10
-2.50551e-08
2.89414e-10
-2.50929e-08
2.54327e-10
-2.51249e-08
2.20084e-10
-2.51512e-08
1.86676e-10
-2.51722e-08
1.54094e-10
-2.51877e-08
1.22328e-10
-2.51981e-08
9.13682e-11
-2.52034e-08
6.12041e-11
-2.52038e-08
3.18252e-11
-2.51995e-08
3.22087e-12
-2.46198e-11
-2.51904e-08
-8.4304e-10
4.98787e-09
-1.67803e-09
4.94042e-09
-2.50438e-09
4.88966e-09
-3.32154e-09
4.83581e-09
-4.129e-09
4.77905e-09
-4.92627e-09
4.71958e-09
-5.71291e-09
4.65757e-09
-6.48849e-09
4.59321e-09
-7.25262e-09
4.52668e-09
-8.00497e-09
4.45813e-09
-8.74519e-09
4.38774e-09
-9.47298e-09
4.31567e-09
-1.01881e-08
4.24207e-09
-1.08903e-08
4.16708e-09
-1.15793e-08
4.09085e-09
-1.2255e-08
4.01353e-09
-1.29171e-08
3.93523e-09
-1.35656e-08
3.8561e-09
-1.42003e-08
3.77624e-09
-1.48212e-08
3.69579e-09
-1.5428e-08
3.61486e-09
-1.60209e-08
3.53354e-09
-1.65996e-08
3.45195e-09
-1.71643e-08
3.37018e-09
-1.77148e-08
3.28832e-09
-1.82513e-08
3.20647e-09
-1.87736e-08
3.12471e-09
-1.92819e-08
3.04312e-09
-1.97762e-08
2.96178e-09
-2.02566e-08
2.88075e-09
-2.0723e-08
2.80011e-09
-2.11757e-08
2.71992e-09
-2.16148e-08
2.64025e-09
-2.20402e-08
2.56113e-09
-2.24521e-08
2.48264e-09
-2.28508e-08
2.40481e-09
-2.32362e-08
2.32771e-09
-2.36085e-08
2.25136e-09
-2.39679e-08
2.1758e-09
-2.43145e-08
2.10109e-09
-2.46485e-08
2.02724e-09
-2.49701e-08
1.9543e-09
-2.52794e-08
1.88228e-09
-2.55765e-08
1.81122e-09
-2.58617e-08
1.74114e-09
-2.61352e-08
1.67206e-09
-2.63971e-08
1.604e-09
-2.66476e-08
1.53698e-09
-2.68869e-08
1.47101e-09
-2.71152e-08
1.40611e-09
-2.73327e-08
1.34228e-09
-2.75395e-08
1.27954e-09
-2.7736e-08
1.21789e-09
-2.79222e-08
1.15734e-09
-2.80983e-08
1.0979e-09
-2.82646e-08
1.03956e-09
-2.84213e-08
9.82339e-10
-2.85685e-08
9.26225e-10
-2.87065e-08
8.71221e-10
-2.88354e-08
8.17326e-10
-2.89555e-08
7.64536e-10
-2.90669e-08
7.12848e-10
-2.91698e-08
6.62258e-10
-2.92644e-08
6.12759e-10
-2.9351e-08
5.64345e-10
-2.94296e-08
5.1701e-10
-2.95005e-08
4.70744e-10
-2.95639e-08
4.2554e-10
-2.962e-08
3.81388e-10
-2.96688e-08
3.38279e-10
-2.97107e-08
2.96201e-10
-2.97458e-08
2.55146e-10
-2.97742e-08
2.151e-10
-2.97961e-08
1.76053e-10
-2.98118e-08
1.37992e-10
-2.98213e-08
1.00905e-10
-2.98249e-08
6.47794e-11
-2.98227e-08
2.96023e-11
-2.98148e-08
-4.63953e-12
-3.79596e-11
-2.98015e-08
-1.00702e-09
5.9949e-09
-2.00441e-09
5.93781e-09
-2.99145e-09
5.8767e-09
-3.96747e-09
5.81183e-09
-4.93184e-09
5.74342e-09
-5.88397e-09
5.67171e-09
-6.82331e-09
5.59691e-09
-7.74935e-09
5.51925e-09
-8.66162e-09
5.43895e-09
-9.55969e-09
5.3562e-09
-1.04432e-08
5.27121e-09
-1.13117e-08
5.18418e-09
-1.21649e-08
5.09528e-09
-1.30025e-08
5.00471e-09
-1.38243e-08
4.91263e-09
-1.463e-08
4.81922e-09
-1.54194e-08
4.72463e-09
-1.61923e-08
4.62903e-09
-1.69486e-08
4.53257e-09
-1.76882e-08
4.43538e-09
-1.8411e-08
4.3376e-09
-1.91168e-08
4.23937e-09
-1.98057e-08
4.14081e-09
-2.04775e-08
4.04205e-09
-2.11324e-08
3.94319e-09
-2.17703e-08
3.84435e-09
-2.23912e-08
3.74562e-09
-2.29952e-08
3.64711e-09
-2.35823e-08
3.5489e-09
-2.41527e-08
3.4511e-09
-2.47063e-08
3.35377e-09
-2.52434e-08
3.25699e-09
-2.5764e-08
3.16085e-09
-2.62682e-08
3.0654e-09
-2.67563e-08
2.97071e-09
-2.72283e-08
2.87685e-09
-2.76845e-08
2.78386e-09
-2.81249e-08
2.69181e-09
-2.85499e-08
2.60073e-09
-2.89595e-08
2.51067e-09
-2.93539e-08
2.42168e-09
-2.97334e-08
2.3338e-09
-3.00982e-08
2.24705e-09
-3.04484e-08
2.16146e-09
-3.07843e-08
2.07707e-09
-3.11062e-08
1.99391e-09
-3.14142e-08
1.91199e-09
-3.17085e-08
1.83133e-09
-3.19895e-08
1.75196e-09
-3.22573e-08
1.67389e-09
-3.25121e-08
1.59713e-09
-3.27543e-08
1.52169e-09
-3.2984e-08
1.44758e-09
-3.32014e-08
1.37481e-09
-3.34069e-08
1.30339e-09
-3.36007e-08
1.23331e-09
-3.37829e-08
1.16458e-09
-3.39539e-08
1.0972e-09
-3.41138e-08
1.03117e-09
-3.4263e-08
9.66489e-10
-3.44016e-08
9.03147e-10
-3.45299e-08
8.41143e-10
-3.46481e-08
7.80469e-10
-3.47565e-08
7.21119e-10
-3.48552e-08
6.63084e-10
-3.49446e-08
6.06356e-10
-3.50248e-08
5.50924e-10
-3.5096e-08
4.96778e-10
-3.51585e-08
4.43905e-10
-3.52125e-08
3.92294e-10
-3.52583e-08
3.41931e-10
-3.52959e-08
2.92804e-10
-3.53257e-08
2.44898e-10
-3.53479e-08
1.98199e-10
-3.53626e-08
1.52691e-10
-3.537e-08
1.0836e-10
-3.53704e-08
6.51902e-11
-3.5364e-08
2.31647e-11
-3.53509e-08
-1.77323e-11
-5.75174e-11
-3.53313e-08
-1.20633e-09
7.20122e-09
-2.40109e-09
7.13257e-09
-3.58342e-09
7.05903e-09
-4.75247e-09
6.98089e-09
-5.90749e-09
6.89844e-09
-7.04775e-09
6.81196e-09
-8.17257e-09
6.72173e-09
-9.28133e-09
6.62802e-09
-1.03735e-08
6.53107e-09
-1.14484e-08
6.43116e-09
-1.25057e-08
6.32851e-09
-1.35449e-08
6.22337e-09
-1.45656e-08
6.11598e-09
-1.55674e-08
6.00654e-09
-1.65501e-08
5.89527e-09
-1.75132e-08
5.78239e-09
-1.84567e-08
5.66808e-09
-1.93802e-08
5.55255e-09
-2.02836e-08
5.43597e-09
-2.11667e-08
5.31851e-09
-2.20295e-08
5.20035e-09
-2.28718e-08
5.08166e-09
-2.36935e-08
4.96257e-09
-2.44947e-08
4.84324e-09
-2.52753e-08
4.7238e-09
-2.60354e-08
4.6044e-09
-2.67749e-08
4.48515e-09
-2.7494e-08
4.36617e-09
-2.81927e-08
4.24758e-09
-2.8871e-08
4.12949e-09
-2.95293e-08
4.01199e-09
-3.01675e-08
3.89518e-09
-3.07858e-08
3.77915e-09
-3.13843e-08
3.66398e-09
-3.19634e-08
3.54975e-09
-3.25231e-08
3.43653e-09
-3.30636e-08
3.32439e-09
-3.35852e-08
3.2134e-09
-3.40881e-08
3.10361e-09
-3.45725e-08
2.99507e-09
-3.50386e-08
2.88784e-09
-3.54868e-08
2.78196e-09
-3.59172e-08
2.67748e-09
-3.63302e-08
2.57442e-09
-3.67259e-08
2.47283e-09
-3.71047e-08
2.37273e-09
-3.74669e-08
2.27416e-09
-3.78127e-08
2.17713e-09
-3.81424e-08
2.08167e-09
-3.84563e-08
1.98779e-09
-3.87547e-08
1.89551e-09
-3.90379e-08
1.80485e-09
-3.93061e-08
1.71581e-09
-3.95597e-08
1.62841e-09
-3.97989e-08
1.54264e-09
-4.00241e-08
1.45851e-09
-4.02356e-08
1.37602e-09
-4.04335e-08
1.29518e-09
-4.06184e-08
1.21598e-09
-4.07903e-08
1.13841e-09
-4.09496e-08
1.06247e-09
-4.10966e-08
9.88159e-10
-4.12316e-08
9.15463e-10
-4.13549e-08
8.44374e-10
-4.14667e-08
7.74881e-10
-4.15673e-08
7.06972e-10
-4.1657e-08
6.40635e-10
-4.17361e-08
5.75856e-10
-4.18048e-08
5.12619e-10
-4.18634e-08
4.50911e-10
-4.19122e-08
3.90714e-10
-4.19514e-08
3.32011e-10
-4.19813e-08
2.74786e-10
-4.20021e-08
2.1902e-10
-4.20141e-08
1.64694e-10
-4.20175e-08
1.1179e-10
-4.20126e-08
6.02875e-11
-4.19996e-08
1.01671e-11
-4.19788e-08
-3.85915e-11
-8.60086e-11
-4.19503e-08
-1.4489e-09
8.65012e-09
-2.88387e-09
8.56755e-09
-4.30384e-09
8.479e-09
-5.70779e-09
8.38484e-09
-7.09477e-09
8.28541e-09
-8.46387e-09
8.18106e-09
-9.81426e-09
8.07213e-09
-1.11452e-08
7.95894e-09
-1.24559e-08
7.84181e-09
-1.37458e-08
7.72106e-09
-1.50143e-08
7.59697e-09
-1.62608e-08
7.46985e-09
-1.74848e-08
7.33997e-09
-1.86858e-08
7.2076e-09
-1.98636e-08
7.07301e-09
-2.10176e-08
6.93646e-09
-2.21477e-08
6.79817e-09
-2.32536e-08
6.6584e-09
-2.4335e-08
6.51736e-09
-2.53917e-08
6.37527e-09
-2.64237e-08
6.23234e-09
-2.74308e-08
6.08875e-09
-2.84129e-08
5.94471e-09
-2.93701e-08
5.80038e-09
-3.03022e-08
5.65595e-09
-3.12094e-08
5.51157e-09
-3.20917e-08
5.36739e-09
-3.29491e-08
5.22357e-09
-3.37817e-08
5.08024e-09
-3.45898e-08
4.93753e-09
-3.53733e-08
4.79556e-09
-3.61326e-08
4.65445e-09
-3.68677e-08
4.5143e-09
-3.7579e-08
4.37523e-09
-3.82666e-08
4.23732e-09
-3.89307e-08
4.10066e-09
-3.95716e-08
3.96533e-09
-4.01896e-08
3.83142e-09
-4.0785e-08
3.69899e-09
-4.1358e-08
3.5681e-09
-4.1909e-08
3.43883e-09
-4.24383e-08
3.31121e-09
-4.29461e-08
3.18531e-09
-4.34329e-08
3.06116e-09
-4.38988e-08
2.93881e-09
-4.43444e-08
2.8183e-09
-4.47699e-08
2.69965e-09
-4.51757e-08
2.58289e-09
-4.5562e-08
2.46806e-09
-4.59294e-08
2.35516e-09
-4.62781e-08
2.24423e-09
-4.66085e-08
2.13527e-09
-4.6921e-08
2.02829e-09
-4.72159e-08
1.9233e-09
-4.74936e-08
1.82032e-09
-4.77544e-08
1.71934e-09
-4.79988e-08
1.62036e-09
-4.8227e-08
1.52338e-09
-4.84394e-08
1.4284e-09
-4.86364e-08
1.33542e-09
-4.88184e-08
1.24442e-09