/*--------------------------------*- C++ -*----------------------------------*\
  =========                 |
  \\      /  F ield         | OpenFOAM: The Open Source CFD Toolbox
   \\    /   O peration     | Website:  https://openfoam.org
    \\  /    A nd           | Version:  8
     \\/     M anipulation  |
\*---------------------------------------------------------------------------*/
FoamFile
{
    version     2.0;
    format      ascii;
    class       surfaceScalarField;
    location    "2000";
    object      phia;
}
// * * * * * * * * * * * * * * * * * * * * * * * * * * * * * * * * * * * * * //

dimensions      [0 3 -1 0 0 0 0];

internalField   nonuniform List<scalar> 
25360
(
-2.13989e-10
2.14031e-10
-4.25949e-10
2.12003e-10
-6.35747e-10
2.0984e-10
-8.43256e-10
2.07551e-10
-1.04836e-09
2.05144e-10
-1.25094e-09
2.02626e-10
-1.45091e-09
2.00006e-10
-1.64816e-09
1.97289e-10
-1.8426e-09
1.94484e-10
-2.03416e-09
1.91596e-10
-2.22275e-09
1.88634e-10
-2.40832e-09
1.85602e-10
-2.59079e-09
1.82508e-10
-2.7701e-09
1.79356e-10
-2.94622e-09
1.76154e-10
-3.11909e-09
1.72906e-10
-3.28867e-09
1.69618e-10
-3.45493e-09
1.66295e-10
-3.61783e-09
1.62942e-10
-3.77736e-09
1.59563e-10
-3.93349e-09
1.56164e-10
-4.0862e-09
1.52748e-10
-4.23548e-09
1.4932e-10
-4.38133e-09
1.45883e-10
-4.52374e-09
1.42442e-10
-4.66271e-09
1.39e-10
-4.79823e-09
1.3556e-10
-4.93032e-09
1.32126e-10
-5.05899e-09
1.287e-10
-5.18424e-09
1.25287e-10
-5.3061e-09
1.21887e-10
-5.42457e-09
1.18505e-10
-5.53968e-09
1.15143e-10
-5.65145e-09
1.11802e-10
-5.7599e-09
1.08485e-10
-5.86507e-09
1.05195e-10
-5.96697e-09
1.01932e-10
-6.06564e-09
9.86997e-11
-6.16111e-09
9.54985e-11
-6.25341e-09
9.23304e-11
-6.34257e-09
8.91968e-11
-6.42864e-09
8.6099e-11
-6.51165e-09
8.30383e-11
-6.59164e-09
8.00158e-11
-6.66864e-09
7.70325e-11
-6.7427e-09
7.40893e-11
-6.81386e-09
7.11872e-11
-6.88216e-09
6.83268e-11
-6.94764e-09
6.55088e-11
-7.01035e-09
6.2734e-11
-7.07032e-09
6.00027e-11
-7.12761e-09
5.73154e-11
-7.18225e-09
5.46726e-11
-7.2343e-09
5.20745e-11
-7.2838e-09
4.95215e-11
-7.33078e-09
4.70137e-11
-7.37531e-09
4.45513e-11
-7.41742e-09
4.21343e-11
-7.45716e-09
3.97629e-11
-7.49457e-09
3.7437e-11
-7.5297e-09
3.51566e-11
-7.5626e-09
3.29215e-11
-7.5933e-09
3.07317e-11
-7.62186e-09
2.85871e-11
-7.64833e-09
2.64873e-11
-7.67274e-09
2.44322e-11
-7.69513e-09
2.24215e-11
-7.71556e-09
2.04549e-11
-7.73407e-09
1.85321e-11
-7.7507e-09
1.66527e-11
-7.7655e-09
1.48165e-11
-7.7785e-09
1.30229e-11
-7.78974e-09
1.12715e-11
-7.79928e-09
9.56204e-12
-7.80716e-09
7.89394e-12
-7.8134e-09
6.26677e-12
-7.81806e-09
4.68005e-12
-7.82117e-09
3.13329e-12
-7.82277e-09
1.62599e-12
1.57633e-13
-7.82291e-09
-2.20697e-10
4.34728e-10
-4.39302e-10
4.30607e-10
-6.55676e-10
4.26214e-10
-8.69689e-10
4.21564e-10
-1.08122e-09
4.16674e-10
-1.29015e-09
4.1156e-10
-1.49638e-09
4.06235e-10
-1.69981e-09
4.00716e-10
-1.90034e-09
3.95016e-10
-2.09789e-09
3.89149e-10
-2.29239e-09
3.8313e-10
-2.48376e-09
3.7697e-10
-2.67193e-09
3.70682e-10
-2.85686e-09
3.64279e-10
-3.03847e-09
3.57772e-10
-3.21674e-09
3.51173e-10
-3.39161e-09
3.44492e-10
-3.56306e-09
3.3774e-10
-3.73104e-09
3.30926e-10
-3.89554e-09
3.24061e-10
-4.05653e-09
3.17154e-10
-4.214e-09
3.10213e-10
-4.36793e-09
3.03247e-10
-4.51831e-09
2.96265e-10
-4.66514e-09
2.89272e-10
-4.80842e-09
2.82278e-10
-4.94815e-09
2.75289e-10
-5.08433e-09
2.68311e-10
-5.21698e-09
2.61351e-10
-5.34611e-09
2.54416e-10
-5.47173e-09
2.47509e-10
-5.59387e-09
2.40637e-10
-5.71253e-09
2.33805e-10
-5.82774e-09
2.27018e-10
-5.93954e-09
2.20279e-10
-6.04794e-09
2.13594e-10
-6.15297e-09
2.06965e-10
-6.25467e-09
2.00398e-10
-6.35306e-09
1.93894e-10
-6.44819e-09
1.87458e-10
-6.54008e-09
1.81091e-10
-6.62878e-09
1.74798e-10
-6.71433e-09
1.6858e-10
-6.79675e-09
1.6244e-10
-6.8761e-09
1.56379e-10
-6.95241e-09
1.504e-10
-7.02572e-09
1.44504e-10
-7.09609e-09
1.38694e-10
-7.16355e-09
1.32969e-10
-7.22815e-09
1.27333e-10
-7.28993e-09
1.21784e-10
-7.34894e-09
1.16326e-10
-7.40523e-09
1.10958e-10
-7.45883e-09
1.0568e-10
-7.50981e-09
1.00494e-10
-7.55819e-09
9.54006e-11
-7.60404e-09
9.0399e-11
-7.6474e-09
8.54898e-11
-7.68831e-09
8.06732e-11
-7.72682e-09
7.59491e-11
-7.76298e-09
7.13174e-11
-7.79684e-09
6.67781e-11
-7.82843e-09
6.23307e-11
-7.85782e-09
5.7975e-11
-7.88505e-09
5.37105e-11
-7.91015e-09
4.95368e-11
-7.93318e-09
4.54534e-11
-7.95419e-09
4.14596e-11
-7.97321e-09
3.75548e-11
-7.9903e-09
3.37383e-11
-8.00549e-09
3.00093e-11
-8.01883e-09
2.6367e-11
-8.03037e-09
2.28107e-11
-8.04015e-09
1.93394e-11
-8.04821e-09
1.59522e-11
-8.05459e-09
1.26481e-11
-8.05933e-09
9.42626e-12
-8.06249e-09
6.2856e-12
-8.06409e-09
3.2251e-12
2.43734e-13
-8.06417e-09
-2.34334e-10
6.69062e-10
-4.66446e-10
6.62719e-10
-6.96189e-10
6.55957e-10
-9.23423e-10
6.48799e-10
-1.14802e-09
6.41271e-10
-1.36986e-09
6.33396e-10
-1.58882e-09
6.25198e-10
-1.8048e-09
6.167e-10
-2.01771e-09
6.07924e-10
-2.22745e-09
5.9889e-10
-2.43394e-09
5.89621e-10
-2.63711e-09
5.80136e-10
-2.83688e-09
5.70454e-10
-3.03319e-09
5.60594e-10
-3.226e-09
5.50574e-10
-3.41523e-09
5.40411e-10
-3.60087e-09
5.30123e-10
-3.78285e-09
5.19725e-10
-3.96116e-09
5.09233e-10
-4.13576e-09
4.98661e-10
-4.30663e-09
4.88025e-10
-4.47375e-09
4.77337e-10
-4.63712e-09
4.6661e-10
-4.79671e-09
4.55857e-10
-4.95253e-09
4.4509e-10
-5.10457e-09
4.3432e-10
-5.25284e-09
4.23558e-10
-5.39734e-09
4.12813e-10
-5.53808e-09
4.02096e-10
-5.67508e-09
3.91416e-10
-5.80836e-09
3.80782e-10
-5.93792e-09
3.70201e-10
-6.0638e-09
3.59682e-10
-6.18601e-09
3.49231e-10
-6.30459e-09
3.38856e-10
-6.41956e-09
3.28563e-10
-6.53095e-09
3.18357e-10
-6.6388e-09
3.08246e-10
-6.74313e-09
2.98233e-10
-6.844e-09
2.88324e-10
-6.94143e-09
2.78523e-10
-7.03547e-09
2.68834e-10
-7.12615e-09
2.59262e-10
-7.21352e-09
2.4981e-10
-7.29762e-09
2.4048e-10
-7.3785e-09
2.31276e-10
-7.4562e-09
2.22201e-10
-7.53076e-09
2.13257e-10
-7.60223e-09
2.04446e-10
-7.67067e-09
1.9577e-10
-7.73612e-09
1.8723e-10
-7.79862e-09
1.78828e-10
-7.85823e-09
1.70566e-10
-7.91499e-09
1.62444e-10
-7.96896e-09
1.54463e-10
-8.02018e-09
1.46623e-10
-8.06871e-09
1.38926e-10
-8.11459e-09
1.31371e-10
-8.15788e-09
1.23959e-10
-8.19862e-09
1.1669e-10
-8.23686e-09
1.09563e-10
-8.27266e-09
1.02578e-10
-8.30607e-09
9.57343e-11
-8.33712e-09
8.90322e-11
-8.36588e-09
8.24707e-11
-8.3924e-09
7.60491e-11
-8.41671e-09
6.97665e-11
-8.43887e-09
6.3622e-11
-8.45893e-09
5.76146e-11
-8.47694e-09
5.17431e-11
-8.49293e-09
4.60064e-11
-8.50697e-09
4.04034e-11
-8.51909e-09
3.49326e-11
-8.52935e-09
2.95928e-11
-8.53778e-09
2.43825e-11
-8.54443e-09
1.93002e-11
-8.54935e-09
1.43446e-11
-8.55258e-09
9.51392e-12
-8.55416e-09
4.8067e-12
2.2132e-13
-8.55413e-09
-2.55349e-10
9.24411e-10
-5.08275e-10
9.15646e-10
-7.58619e-10
9.063e-10
-1.00623e-09
8.96407e-10
-1.25096e-09
8.86001e-10
-1.49268e-09
8.75115e-10
-1.73126e-09
8.63782e-10
-1.96659e-09
8.52034e-10
-2.19857e-09
8.399e-10
-2.42709e-09
8.2741e-10
-2.65206e-09
8.14594e-10
-2.87341e-09
8.01479e-10
-3.09104e-09
7.88091e-10
-3.30491e-09
7.74457e-10
-3.51494e-09
7.60602e-10
-3.72107e-09
7.4655e-10
-3.92328e-09
7.32324e-10
-4.1215e-09
7.17946e-10
-4.3157e-09
7.03437e-10
-4.50586e-09
6.8882e-10
-4.69195e-09
6.74112e-10
-4.87394e-09
6.59332e-10
-5.05183e-09
6.445e-10
-5.22561e-09
6.29632e-10
-5.39526e-09
6.14744e-10
-5.56079e-09
5.99852e-10
-5.72221e-09
5.84971e-10
-5.87951e-09
5.70115e-10
-6.03271e-09
5.55298e-10
-6.18183e-09
5.40532e-10
-6.32687e-09
5.25829e-10
-6.46787e-09
5.112e-10
-6.60485e-09
4.96657e-10
-6.73782e-09
4.82209e-10
-6.86683e-09
4.67866e-10
-6.99191e-09
4.53636e-10
-7.11308e-09
4.39529e-10
-7.23038e-09
4.25551e-10
-7.34386e-09
4.1171e-10
-7.45355e-09
3.98013e-10
-7.55949e-09
3.84466e-10
-7.66173e-09
3.71074e-10
-7.76032e-09
3.57844e-10
-7.85528e-09
3.44779e-10
-7.94669e-09
3.31885e-10
-8.03458e-09
3.19166e-10
-8.119e-09
3.06624e-10
-8.20001e-09
2.94263e-10
-8.27765e-09
2.82087e-10
-8.35198e-09
2.70098e-10
-8.42305e-09
2.58298e-10
-8.49091e-09
2.46689e-10
-8.55561e-09
2.35273e-10
-8.61722e-09
2.24051e-10
-8.67578e-09
2.13024e-10
-8.73135e-09
2.02193e-10
-8.78399e-09
1.9156e-10
-8.83374e-09
1.81123e-10
-8.88066e-09
1.70884e-10
-8.92481e-09
1.60842e-10
-8.96625e-09
1.50997e-10
-9.00502e-09
1.41348e-10
-9.04118e-09
1.31896e-10
-9.07479e-09
1.2264e-10
-9.10589e-09
1.13578e-10
-9.13455e-09
1.04709e-10
-9.16082e-09
9.60325e-11
-9.18475e-09
8.75472e-11
-9.20638e-09
7.92515e-11
-9.22578e-09
7.11438e-11
-9.243e-09
6.32226e-11
-9.25808e-09
5.54862e-11
-9.27108e-09
4.79327e-11
-9.28205e-09
4.05603e-11
-9.29103e-09
3.33671e-11
-9.29808e-09
2.63509e-11
-9.30325e-09
1.95097e-11
-9.30658e-09
1.28413e-11
-9.30811e-09
6.34363e-12
1.43685e-14
-9.30791e-09
-2.84437e-10
1.20885e-09
-5.66174e-10
1.19738e-09
-8.45032e-10
1.18516e-09
-1.12084e-09
1.17221e-09
-1.39344e-09
1.1586e-09
-1.66268e-09
1.14435e-09
-1.92842e-09
1.12952e-09
-2.19053e-09
1.11415e-09
-2.44889e-09
1.09826e-09
-2.7034e-09
1.08192e-09
-2.95395e-09
1.06514e-09
-3.20044e-09
1.04797e-09
-3.4428e-09
1.03045e-09
-3.68095e-09
1.0126e-09
-3.91481e-09
9.94464e-10
-4.14433e-09
9.76068e-10
-4.36945e-09
9.57445e-10
-4.59012e-09
9.38623e-10
-4.80632e-09
9.1963e-10
-5.01799e-09
9.00493e-10
-5.22512e-09
8.81239e-10
-5.42768e-09
8.61892e-10
-5.62565e-09
8.42476e-10
-5.81903e-09
8.23012e-10
-6.00781e-09
8.03523e-10
-6.19199e-09
7.8403e-10
-6.37157e-09
7.64551e-10
-6.54656e-09
7.45106e-10
-6.71697e-09
7.25711e-10
-6.88282e-09
7.06383e-10
-7.04413e-09
6.87139e-10
-7.20093e-09
6.67993e-10
-7.35323e-09
6.48959e-10
-7.50107e-09
6.3005e-10
-7.64448e-09
6.11279e-10
-7.78351e-09
5.92658e-10
-7.91817e-09
5.74196e-10
-8.04853e-09
5.55905e-10
-8.17461e-09
5.37794e-10
-8.29647e-09
5.19872e-10
-8.41415e-09
5.02147e-10
-8.5277e-09
4.84626e-10
-8.63718e-09
4.67316e-10
-8.74262e-09
4.50224e-10
-8.84409e-09
4.33356e-10
-8.94164e-09
4.16716e-10
-9.03533e-09
4.00311e-10
-9.12521e-09
3.84143e-10
-9.21134e-09
3.68216e-10
-9.29377e-09
3.52535e-10
-9.37258e-09
3.37102e-10
-9.44781e-09
3.2192e-10
-9.51953e-09
3.0699e-10
-9.58779e-09
2.92315e-10
-9.65266e-09
2.77896e-10
-9.7142e-09
2.63734e-10
-9.77247e-09
2.4983e-10
-9.82753e-09
2.36184e-10
-9.87945e-09
2.22798e-10
-9.92828e-09
2.09669e-10
-9.97408e-09
1.96799e-10
-1.00169e-08
1.84187e-10
-1.00569e-08
1.71832e-10
-1.00939e-08
1.59733e-10
-1.01283e-08
1.47889e-10
-1.01598e-08
1.36298e-10
-1.01888e-08
1.24959e-10
-1.02151e-08
1.1387e-10
-1.02389e-08
1.0303e-10
-1.02602e-08
9.24355e-11
-1.0279e-08
8.20856e-11
-1.02955e-08
7.19776e-11
-1.03097e-08
6.21092e-11
-1.03216e-08
5.24778e-11
-1.03313e-08
4.30809e-11
-1.03389e-08
3.39158e-11
-1.03444e-08
2.49798e-11
-1.03478e-08
1.62701e-11
-1.03492e-08
7.78369e-12
-4.82284e-13
-1.03487e-08
-3.22566e-10
1.53141e-09
-6.4207e-10
1.51689e-09
-9.58305e-10
1.50139e-09
-1.27108e-09
1.48499e-09
-1.5802e-09
1.46772e-09
-1.88551e-09
1.44966e-09
-2.18684e-09
1.43085e-09
-2.48405e-09
1.41136e-09
-2.777e-09
1.39121e-09
-3.06556e-09
1.37048e-09
-3.34962e-09
1.3492e-09
-3.62907e-09
1.32743e-09
-3.90382e-09
1.3052e-09
-4.17377e-09
1.28256e-09
-4.43886e-09
1.25955e-09
-4.699e-09
1.23621e-09
-4.95414e-09
1.21259e-09
-5.20423e-09
1.18871e-09
-5.44921e-09
1.16461e-09
-5.68905e-09
1.14034e-09
-5.92373e-09
1.11591e-09
-6.15321e-09
1.09137e-09
-6.37747e-09
1.06674e-09
-6.59651e-09
1.04205e-09
-6.81031e-09
1.01733e-09
-7.01888e-09
9.92602e-10
-7.22223e-09
9.67894e-10
-7.42035e-09
9.4323e-10
-7.61327e-09
9.1863e-10
-7.801e-09
8.94117e-10
-7.98358e-09
8.6971e-10
-8.16101e-09
8.45428e-10
-8.33334e-09
8.2129e-10
-8.5006e-09
7.97311e-10
-8.66283e-09
7.73508e-10
-8.82007e-09
7.49895e-10
-8.97236e-09
7.26487e-10
-9.11975e-09
7.03295e-10
-9.26229e-09
6.80333e-10
-9.40003e-09
6.57611e-10
-9.53302e-09
6.3514e-10
-9.66132e-09
6.12929e-10
-9.78499e-09
5.90988e-10
-9.90409e-09
5.69323e-10
-1.00187e-08
5.47943e-10
-1.01288e-08
5.26853e-10
-1.02346e-08
5.06062e-10
-1.0336e-08
4.85572e-10
-1.04332e-08
4.65391e-10
-1.05262e-08
4.4552e-10
-1.0615e-08
4.25966e-10
-1.06998e-08
4.0673e-10
-1.07807e-08
3.87815e-10
-1.08576e-08
3.69224e-10
-1.09306e-08
3.50959e-10
-1.09999e-08
3.3302e-10
-1.10655e-08
3.15409e-10
-1.11274e-08
2.98127e-10
-1.11858e-08
2.81173e-10
-1.12407e-08
2.64547e-10
-1.12921e-08
2.4825e-10
-1.13402e-08
2.3228e-10
-1.1385e-08
2.16637e-10
-1.14266e-08
2.01319e-10
-1.14651e-08
1.86324e-10
-1.15004e-08
1.71651e-10
-1.15327e-08
1.57298e-10
-1.15621e-08
1.43262e-10
-1.15887e-08
1.29542e-10
-1.16124e-08
1.16134e-10
-1.16333e-08
1.03037e-10
-1.16516e-08
9.02459e-11
-1.16672e-08
7.77591e-11
-1.16803e-08
6.55731e-11
-1.16909e-08
5.36846e-11
-1.16991e-08
4.20901e-11
-1.17049e-08
3.07862e-11
-1.17084e-08
1.97693e-11
-1.17097e-08
9.03565e-12
-1.41851e-12
-1.17087e-08
-3.71019e-10
1.90243e-09
-7.38513e-10
1.88438e-09
-1.10224e-09
1.86512e-09
-1.46198e-09
1.84472e-09
-1.81752e-09
1.82326e-09
-2.16866e-09
1.8008e-09
-2.51521e-09
1.77741e-09
-2.857e-09
1.75315e-09
-3.19389e-09
1.7281e-09
-3.52571e-09
1.7023e-09
-3.85233e-09
1.67583e-09
-4.17364e-09
1.64873e-09
-4.48952e-09
1.62107e-09
-4.79986e-09
1.5929e-09
-5.10459e-09
1.56427e-09
-5.40361e-09
1.53523e-09
-5.69685e-09
1.50583e-09
-5.98426e-09
1.47612e-09
-6.26579e-09
1.44614e-09
-6.54138e-09
1.41593e-09
-6.811e-09
1.38553e-09
-7.07462e-09
1.35499e-09
-7.33222e-09
1.32434e-09
-7.58379e-09
1.29362e-09
-7.82933e-09
1.26286e-09
-8.06882e-09
1.23209e-09
-8.30228e-09
1.20135e-09
-8.52971e-09
1.17067e-09
-8.75115e-09
1.14006e-09
-8.96659e-09
1.10957e-09
-9.17609e-09
1.0792e-09
-9.37965e-09
1.049e-09
-9.57734e-09
1.01897e-09
-9.76917e-09
9.89144e-10
-9.9552e-09
9.59538e-10
-1.01355e-08
9.30171e-10
-1.031e-08
9.01059e-10
-1.0479e-08
8.72218e-10
-1.06423e-08
8.43664e-10
-1.08001e-08
8.15411e-10
-1.09524e-08
7.87471e-10
-1.10994e-08
7.59857e-10
-1.1241e-08
7.32578e-10
-1.13773e-08
7.05646e-10
-1.15084e-08
6.7907e-10
-1.16344e-08
6.52856e-10
-1.17554e-08
6.27014e-10
-1.18713e-08
6.0155e-10
-1.19824e-08
5.7647e-10
-1.20887e-08
5.51779e-10
-1.21902e-08
5.27482e-10
-1.2287e-08
5.03582e-10
-1.23793e-08
4.80083e-10
-1.24671e-08
4.56988e-10
-1.25504e-08
4.34299e-10
-1.26294e-08
4.12017e-10
-1.27041e-08
3.90145e-10
-1.27747e-08
3.68682e-10
-1.28412e-08
3.47628e-10
-1.29036e-08
3.26984e-10
-1.29621e-08
3.0675e-10
-1.30167e-08
2.86923e-10
-1.30676e-08
2.67503e-10
-1.31148e-08
2.48488e-10
-1.31583e-08
2.29876e-10
-1.31983e-08
2.11665e-10
-1.32349e-08
1.93853e-10
-1.32681e-08
1.76436e-10
-1.32979e-08
1.59411e-10
-1.33246e-08
1.42776e-10
-1.33481e-08
1.26527e-10
-1.33685e-08
1.1066e-10
-1.33859e-08
9.51707e-11
-1.34004e-08
8.00563e-11
-1.3412e-08
6.53121e-11
-1.34208e-08
5.09338e-11
-1.3427e-08
3.6917e-11
-1.34305e-08
2.32572e-11
-1.34314e-08
9.94977e-12
-3.00999e-12
-1.34298e-08
-4.3144e-10
2.33387e-09
-8.58778e-10
2.31172e-09
-1.28173e-09
2.28808e-09
-1.70004e-09
2.26303e-09
-2.11345e-09
2.23667e-09
-2.52172e-09
2.20908e-09
-2.92465e-09
2.18034e-09
-3.32204e-09
2.15053e-09
-3.71368e-09
2.11974e-09
-4.09942e-09
2.08804e-09
-4.4791e-09
2.0555e-09
-4.85257e-09
2.0222e-09
-5.21969e-09
1.9882e-09
-5.58036e-09
1.95357e-09
-5.93446e-09
1.91837e-09
-6.28191e-09
1.88267e-09
-6.62261e-09
1.84653e-09
-6.95649e-09
1.81e-09
-7.2835e-09
1.77314e-09
-7.60358e-09
1.73601e-09
-7.91669e-09
1.69864e-09
-8.2228e-09
1.6611e-09
-8.52188e-09
1.62342e-09
-8.81391e-09
1.58566e-09
-9.0989e-09
1.54785e-09
-9.37683e-09
1.51003e-09
-9.64772e-09
1.47224e-09
-9.91158e-09
1.43453e-09
-1.01684e-08
1.39691e-09
-1.04183e-08
1.35943e-09
-1.06612e-08
1.32212e-09
-1.08972e-08
1.285e-09
-1.11264e-08
1.24811e-09
-1.13487e-08
1.21146e-09
-1.15642e-08
1.17509e-09
-1.17731e-08
1.13901e-09
-1.19752e-08
1.10324e-09
-1.21708e-08
1.06782e-09
-1.23599e-08
1.03274e-09
-1.25425e-08
9.98044e-10
-1.27188e-08
9.6373e-10
-1.28888e-08
9.29819e-10
-1.30525e-08
8.96324e-10
-1.32101e-08
8.63256e-10
-1.33617e-08
8.30627e-10
-1.35073e-08
7.98447e-10
-1.3647e-08
7.66725e-10
-1.37809e-08
7.3547e-10
-1.39091e-08
7.04689e-10
-1.40317e-08
6.74387e-10
-1.41488e-08
6.44572e-10
-1.42605e-08
6.15247e-10
-1.43668e-08
5.86417e-10
-1.44679e-08
5.58084e-10
-1.45639e-08
5.30252e-10
-1.46548e-08
5.02923e-10
-1.47407e-08
4.76097e-10
-1.48218e-08
4.49776e-10
-1.48982e-08
4.2396e-10
-1.49698e-08
3.98649e-10
-1.50369e-08
3.73841e-10
-1.50995e-08
3.49537e-10
-1.51578e-08
3.25732e-10
-1.52117e-08
3.02427e-10
-1.52614e-08
2.79618e-10
-1.53071e-08
2.57303e-10
-1.53487e-08
2.35478e-10
-1.53864e-08
2.1414e-10
-1.54203e-08
1.93284e-10
-1.54504e-08
1.72908e-10
-1.54769e-08
1.53006e-10
-1.54998e-08
1.33574e-10
-1.55192e-08
1.14608e-10
-1.55353e-08
9.61019e-11
-1.5548e-08
7.80509e-11
-1.55575e-08
6.04498e-11
-1.55639e-08
4.3293e-11
-1.55672e-08
2.6575e-11
-1.55676e-08
1.02899e-11
-5.568e-12
-1.5565e-08
-5.05909e-10
2.83978e-09
-1.00701e-09
2.81282e-09
-1.50295e-09
2.78402e-09
-1.99344e-09
2.75351e-09
-2.47816e-09
2.72139e-09
-2.95685e-09
2.68777e-09
-3.42925e-09
2.65274e-09
-3.89511e-09
2.6164e-09
-4.35423e-09
2.57886e-09
-4.80639e-09
2.5402e-09
-5.25141e-09
2.50052e-09
-5.68911e-09
2.4599e-09
-6.11934e-09
2.41843e-09
-6.54196e-09
2.37619e-09
-6.95685e-09
2.33326e-09
-7.36389e-09
2.28971e-09
-7.76298e-09
2.24562e-09
-8.15404e-09
2.20106e-09
-8.537e-09
2.1561e-09
-8.91179e-09
2.1108e-09
-9.27837e-09
2.06522e-09
-9.63669e-09
2.01942e-09
-9.98674e-09
1.97347e-09
-1.03285e-08
1.9274e-09
-1.06619e-08
1.88128e-09
-1.09871e-08
1.83516e-09
-1.13039e-08
1.78908e-09
-1.16124e-08
1.74308e-09
-1.19127e-08
1.69721e-09
-1.22048e-08
1.65151e-09
-1.24887e-08
1.60601e-09
-1.27645e-08
1.56076e-09
-1.30321e-08
1.51578e-09
-1.32918e-08
1.4711e-09
-1.35435e-08
1.42676e-09
-1.37872e-08
1.38279e-09
-1.40232e-08
1.3392e-09
-1.42514e-08
1.29603e-09
-1.4472e-08
1.25329e-09
-1.46849e-08
1.21101e-09
-1.48904e-08
1.1692e-09
-1.50885e-08
1.12789e-09
-1.52792e-08
1.08709e-09
-1.54628e-08
1.04681e-09
-1.56392e-08
1.00707e-09
-1.58087e-08
9.67883e-10
-1.59712e-08
9.29257e-10
-1.61269e-08
8.91203e-10
-1.6276e-08
8.53729e-10
-1.64184e-08
8.16844e-10
-1.65544e-08
7.80554e-10
-1.6684e-08
7.44865e-10
-1.68074e-08
7.09781e-10
-1.69246e-08
6.75308e-10
-1.70358e-08
6.41447e-10
-1.71411e-08
6.08201e-10
-1.72406e-08
5.75571e-10
-1.73343e-08
5.43559e-10
-1.74225e-08
5.12165e-10
-1.75053e-08
4.81388e-10
-1.75827e-08
4.51227e-10
-1.76548e-08
4.21681e-10
-1.77218e-08
3.92746e-10
-1.77838e-08
3.64422e-10
-1.78409e-08
3.36704e-10
-1.78932e-08
3.09589e-10
-1.79408e-08
2.83073e-10
-1.79838e-08
2.57151e-10
-1.80223e-08
2.31819e-10
-1.80565e-08
2.07072e-10
-1.80864e-08
1.82905e-10
-1.81121e-08
1.59311e-10
-1.81338e-08
1.36285e-10
-1.81515e-08
1.13821e-10
-1.81654e-08
9.19116e-11
-1.81755e-08
7.05512e-11
-1.81819e-08
4.97327e-11
-1.81848e-08
2.94492e-11
-1.81842e-08
9.6936e-12
-9.54133e-12
-1.81802e-08
-5.97033e-10
3.43681e-09
-1.18838e-09
3.40416e-09
-1.77364e-09
3.36928e-09
-2.35243e-09
3.33231e-09
-2.92441e-09
3.29337e-09
-3.48924e-09
3.25259e-09
-4.04661e-09
3.21011e-09
-4.59624e-09
3.16603e-09
-5.13787e-09
3.12049e-09
-5.67124e-09
3.07358e-09
-6.19615e-09
3.02542e-09
-6.71237e-09
2.97613e-09
-7.21973e-09
2.92579e-09
-7.71806e-09
2.87452e-09
-8.20721e-09
2.82241e-09
-8.68704e-09
2.76955e-09
-9.15744e-09
2.71603e-09
-9.61831e-09
2.66193e-09
-1.00696e-08
2.60735e-09
-1.05111e-08
2.55236e-09
-1.09429e-08
2.49703e-09
-1.13649e-08
2.44144e-09
-1.17771e-08
2.38565e-09
-1.21795e-08
2.32974e-09
-1.25719e-08
2.27376e-09
-1.29546e-08
2.21778e-09
-1.33273e-08
2.16186e-09
-1.36903e-08
2.10604e-09
-1.40435e-08
2.05038e-09
-1.43869e-08
1.99492e-09
-1.47206e-08
1.93973e-09
-1.50446e-08
1.88482e-09
-1.53591e-08
1.83026e-09
-1.56641e-08
1.77607e-09
-1.59596e-08
1.72229e-09
-1.62458e-08
1.66896e-09
-1.65227e-08
1.6161e-09
-1.67904e-08
1.56375e-09
-1.70491e-08
1.51194e-09
-1.72987e-08
1.46068e-09
-1.75395e-08
1.41001e-09
-1.77716e-08
1.35993e-09
-1.7995e-08
1.31049e-09
-1.82099e-08
1.26168e-09
-1.84163e-08
1.21354e-09
-1.86145e-08
1.16606e-09
-1.88045e-08
1.11927e-09
-1.89865e-08
1.07318e-09
-1.91606e-08
1.0278e-09
-1.93269e-08
9.83141e-10
-1.94855e-08
9.39205e-10
-1.96367e-08
8.96002e-10
-1.97804e-08
8.53537e-10
-1.99169e-08
8.11816e-10
-2.00463e-08
7.70842e-10
-2.01687e-08
7.30618e-10
-2.02843e-08
6.91145e-10
-2.03932e-08
6.52424e-10
-2.04955e-08
6.14456e-10
-2.05913e-08
5.77239e-10
-2.06809e-08
5.40772e-10
-2.07642e-08
5.05053e-10
-2.08416e-08
4.7008e-10
-2.0913e-08
4.35848e-10
-2.09786e-08
4.02354e-10
-2.10386e-08
3.69593e-10
-2.10931e-08
3.37561e-10
-2.11422e-08
3.06251e-10
-2.11861e-08
2.75658e-10
-2.12248e-08
2.45776e-10
-2.12585e-08
2.16598e-10
-2.12873e-08
1.88117e-10
-2.13113e-08
1.60326e-10
-2.13307e-08
1.33216e-10
-2.13456e-08
1.06781e-10
-2.1356e-08
8.10114e-11
-2.13622e-08
5.58997e-11
-2.13642e-08
3.14371e-11
-2.13621e-08
7.6149e-12
-1.55757e-11
-2.13561e-08
-7.08061e-10
4.14487e-09
-1.40937e-09
4.10547e-09
-2.10344e-09
4.06335e-09
-2.78982e-09
4.01869e-09
-3.46809e-09
3.97164e-09
-4.13784e-09
3.92235e-09
-4.79871e-09
3.87098e-09
-5.45035e-09
3.81767e-09
-6.09244e-09
3.76258e-09
-6.7247e-09
3.70583e-09
-7.34684e-09
3.64756e-09
-7.95862e-09
3.58791e-09
-8.55983e-09
3.527e-09
-9.15025e-09
3.46494e-09
-9.72971e-09
3.40187e-09
-1.02981e-08
3.33789e-09
-1.08551e-08
3.27311e-09
-1.14008e-08
3.20763e-09
-1.1935e-08
3.14156e-09
-1.24577e-08
3.075e-09
-1.29687e-08
3.00803e-09
-1.3468e-08
2.94074e-09
-1.39556e-08
2.87322e-09
-1.44314e-08
2.80556e-09
-1.48954e-08
2.73781e-09
-1.53477e-08
2.67007e-09
-1.57883e-08
2.6024e-09
-1.62171e-08
2.53486e-09
-1.66342e-08
2.46752e-09
-1.70397e-08
2.40044e-09
-1.74337e-08
2.33366e-09
-1.78161e-08
2.26726e-09
-1.81871e-08
2.20126e-09
-1.85468e-08
2.13573e-09
-1.88952e-08
2.07071e-09
-1.92325e-08
2.00623e-09
-1.95587e-08
1.94233e-09
-1.9874e-08
1.87906e-09
-2.01785e-08
1.81643e-09
-2.04723e-08
1.75449e-09
-2.07556e-08
1.69326e-09
-2.10284e-08
1.63277e-09
-2.1291e-08
1.57304e-09
-2.15434e-08
1.51409e-09
-2.17858e-08
1.45595e-09
-2.20184e-08
1.39863e-09
-2.22412e-08
1.34214e-09
-2.24545e-08
1.28651e-09
-2.26585e-08
1.23173e-09
-2.28532e-08
1.17784e-09
-2.30388e-08
1.12483e-09
-2.32155e-08
1.07271e-09
-2.33834e-08
1.02149e-09
-2.35428e-08
9.71172e-10
-2.36937e-08
9.21765e-10
-2.38364e-08
8.7327e-10
-2.39709e-08
8.25688e-10
-2.40975e-08
7.79021e-10
-2.42163e-08
7.33268e-10
-2.43275e-08
6.88428e-10
-2.44312e-08
6.445e-10
-2.45277e-08
6.01479e-10
-2.4617e-08
5.59363e-10
-2.46993e-08
5.18148e-10
-2.47747e-08
4.77828e-10
-2.48435e-08
4.38397e-10
-2.49058e-08
3.9985e-10
-2.49618e-08
3.62179e-10
-2.50115e-08
3.25378e-10
-2.50551e-08
2.89437e-10
-2.50929e-08
2.5435e-10
-2.51249e-08
2.20107e-10
-2.51512e-08
1.86699e-10
-2.51722e-08
1.54116e-10
-2.51877e-08
1.2235e-10
-2.51981e-08
9.13903e-11
-2.52034e-08
6.1226e-11
-2.52038e-08
3.18469e-11
-2.51995e-08
3.2424e-12
-2.45985e-11
-2.51904e-08
-8.4304e-10
4.98792e-09
-1.67803e-09
4.94046e-09
-2.50438e-09
4.8897e-09
-3.32154e-09
4.83585e-09
-4.129e-09
4.77909e-09
-4.92627e-09
4.71962e-09
-5.71291e-09
4.65761e-09
-6.48849e-09
4.59325e-09
-7.25262e-09
4.52672e-09
-8.00497e-09
4.45817e-09
-8.74519e-09
4.38778e-09
-9.47298e-09
4.31571e-09
-1.01881e-08
4.2421e-09
-1.08903e-08
4.16712e-09
-1.15793e-08
4.09089e-09
-1.2255e-08
4.01356e-09
-1.29171e-08
3.93527e-09
-1.35656e-08
3.85613e-09
-1.42003e-08
3.77628e-09
-1.48212e-08
3.69583e-09
-1.5428e-08
3.61489e-09
-1.60209e-08
3.53357e-09
-1.65996e-08
3.45198e-09
-1.71643e-08
3.37021e-09
-1.77148e-08
3.28836e-09
-1.82513e-08
3.20651e-09
-1.87736e-08
3.12475e-09
-1.92819e-08
3.04316e-09
-1.97762e-08
2.96181e-09
-2.02566e-08
2.88079e-09
-2.0723e-08
2.80015e-09
-2.11757e-08
2.71996e-09
-2.16148e-08
2.64028e-09
-2.20402e-08
2.56116e-09
-2.24521e-08
2.48267e-09
-2.28508e-08
2.40485e-09
-2.32362e-08
2.32774e-09
-2.36085e-08
2.25139e-09
-2.39679e-08
2.17584e-09
-2.43145e-08
2.10112e-09
-2.46485e-08
2.02727e-09
-2.49701e-08
1.95433e-09
-2.52794e-08
1.88231e-09
-2.55765e-08
1.81125e-09
-2.58617e-08
1.74117e-09
-2.61352e-08
1.67209e-09
-2.63971e-08
1.60403e-09
-2.66476e-08
1.53701e-09
-2.68869e-08
1.47104e-09
-2.71152e-08
1.40613e-09
-2.73327e-08
1.34231e-09
-2.75395e-08
1.27956e-09
-2.7736e-08
1.21792e-09
-2.79222e-08
1.15737e-09
-2.80983e-08
1.09792e-09
-2.82646e-08
1.03959e-09
-2.84213e-08
9.82365e-10
-2.85685e-08
9.26251e-10
-2.87065e-08
8.71247e-10
-2.88354e-08
8.17351e-10
-2.89555e-08
7.64561e-10
-2.90669e-08
7.12873e-10
-2.91698e-08
6.62283e-10
-2.92644e-08
6.12784e-10
-2.9351e-08
5.6437e-10
-2.94296e-08
5.17034e-10
-2.95005e-08
4.70768e-10
-2.95639e-08
4.25564e-10
-2.962e-08
3.81411e-10
-2.96688e-08
3.38302e-10
-2.97107e-08
2.96225e-10
-2.97458e-08
2.55168e-10
-2.97742e-08
2.15123e-10
-2.97961e-08
1.76075e-10
-2.98118e-08
1.38014e-10
-2.98213e-08
1.00927e-10
-2.98249e-08
6.48013e-11
-2.98227e-08
2.96241e-11
-2.98148e-08
-4.618e-12
-3.79383e-11
-2.98015e-08
-1.00702e-09
5.99494e-09
-2.00441e-09
5.93785e-09
-2.99145e-09
5.87675e-09
-3.96747e-09
5.81187e-09
-4.93184e-09
5.74346e-09
-5.88397e-09
5.67175e-09
-6.82331e-09
5.59695e-09
-7.74935e-09
5.5193e-09
-8.66162e-09
5.43899e-09
-9.55969e-09
5.35624e-09
-1.04432e-08
5.27125e-09
-1.13117e-08
5.18422e-09
-1.21649e-08
5.09532e-09
-1.30025e-08
5.00475e-09
-1.38243e-08
4.91267e-09
-1.463e-08
4.81926e-09
-1.54194e-08
4.72467e-09
-1.61923e-08
4.62907e-09
-1.69486e-08
4.5326e-09
-1.76882e-08
4.43541e-09
-1.8411e-08
4.33764e-09
-1.91168e-08
4.23941e-09
-1.98057e-08
4.14085e-09
-2.04775e-08
4.04208e-09
-2.11324e-08
3.94323e-09
-2.17703e-08
3.84438e-09
-2.23912e-08
3.74565e-09
-2.29952e-08
3.64714e-09
-2.35823e-08
3.54894e-09
-2.41527e-08
3.45113e-09
-2.47063e-08
3.3538e-09
-2.52434e-08
3.25702e-09
-2.5764e-08
3.16088e-09
-2.62682e-08
3.06543e-09
-2.67563e-08
2.97074e-09
-2.72283e-08
2.87688e-09
-2.76845e-08
2.78389e-09
-2.81249e-08
2.69184e-09
-2.85499e-08
2.60076e-09
-2.89595e-08
2.51071e-09
-2.93539e-08
2.42171e-09
-2.97334e-08
2.33383e-09
-3.00982e-08
2.24707e-09
-3.04484e-08
2.16149e-09
-3.07843e-08
2.0771e-09
-3.11062e-08
1.99394e-09
-3.14142e-08
1.91202e-09
-3.17085e-08
1.83136e-09
-3.19895e-08
1.75199e-09
-3.22573e-08
1.67392e-09
-3.25121e-08
1.59716e-09
-3.27543e-08
1.52172e-09
-3.2984e-08
1.44761e-09
-3.32014e-08
1.37484e-09
-3.34069e-08
1.30341e-09
-3.36007e-08
1.23334e-09
-3.37829e-08
1.16461e-09
-3.39539e-08
1.09723e-09
-3.41138e-08
1.0312e-09
-3.4263e-08
9.66515e-10
-3.44016e-08
9.03173e-10
-3.45299e-08
8.41168e-10
-3.46481e-08
7.80494e-10
-3.47565e-08
7.21144e-10
-3.48552e-08
6.63109e-10
-3.49446e-08
6.0638e-10
-3.50248e-08
5.50948e-10
-3.5096e-08
4.96801e-10
-3.51585e-08
4.43928e-10
-3.52125e-08
3.92317e-10
-3.52583e-08
3.41954e-10
-3.52959e-08
2.92827e-10
-3.53257e-08
2.44921e-10
-3.53479e-08
1.98221e-10
-3.53626e-08
1.52714e-10
-3.537e-08
1.08383e-10
-3.53704e-08
6.52121e-11
-3.5364e-08
2.31864e-11
-3.53509e-08
-1.77108e-11
-5.7496e-11
-3.53313e-08
-1.20633e-09
7.20127e-09
-2.40109e-09
7.13261e-09
-3.58342e-09
7.05907e-09
-4.75247e-09
6.98093e-09
-5.90749e-09
6.89848e-09
-7.04775e-09
6.812e-09
-8.17257e-09
6.72177e-09
-9.28133e-09
6.62806e-09
-1.03735e-08
6.53111e-09
-1.14484e-08
6.4312e-09
-1.25057e-08
6.32855e-09
-1.35449e-08
6.22341e-09
-1.45656e-08
6.11601e-09
-1.55674e-08
6.00658e-09
-1.65501e-08
5.89531e-09
-1.75132e-08
5.78243e-09
-1.84567e-08
5.66812e-09
-1.93802e-08
5.55259e-09
-2.02836e-08
5.436e-09
-2.11667e-08
5.31855e-09
-2.20295e-08
5.20039e-09
-2.28718e-08
5.08169e-09
-2.36935e-08
4.9626e-09
-2.44947e-08
4.84327e-09
-2.52753e-08
4.72384e-09
-2.60354e-08
4.60443e-09
-2.67749e-08
4.48518e-09
-2.7494e-08
4.36621e-09
-2.81927e-08
4.24762e-09
-2.8871e-08
4.12952e-09
-2.95293e-08
4.01202e-09
-3.01675e-08
3.89521e-09
-3.07858e-08
3.77918e-09
-3.13843e-08
3.66401e-09
-3.19634e-08
3.54978e-09
-3.25231e-08
3.43656e-09
-3.30636e-08
3.32442e-09
-3.35852e-08
3.21343e-09
-3.40881e-08
3.10364e-09
-3.45725e-08
2.9951e-09
-3.50386e-08
2.88787e-09
-3.54868e-08
2.78199e-09
-3.59172e-08
2.67751e-09
-3.63302e-08
2.57445e-09
-3.67259e-08
2.47286e-09
-3.71047e-08
2.37276e-09
-3.74669e-08
2.27418e-09
-3.78127e-08
2.17716e-09
-3.81424e-08
2.08169e-09
-3.84563e-08
1.98782e-09
-3.87547e-08
1.89554e-09
-3.90379e-08
1.80488e-09
-3.93061e-08
1.71584e-09
-3.95597e-08
1.62843e-09
-3.97989e-08
1.54266e-09
-4.00241e-08
1.45854e-09
-4.02356e-08
1.37605e-09
-4.04335e-08
1.2952e-09
-4.06184e-08
1.216e-09
-4.07903e-08
1.13843e-09
-4.09496e-08
1.0625e-09
-4.10966e-08
9.88184e-10
-4.12316e-08
9.15488e-10
-4.13549e-08
8.44399e-10
-4.14667e-08
7.74905e-10
-4.15673e-08
7.06996e-10
-4.1657e-08
6.40659e-10
-4.17361e-08
5.75879e-10
-4.18048e-08
5.12643e-10
-4.18634e-08
4.50934e-10
-4.19122e-08
3.90737e-10
-4.19514e-08
3.32034e-10
-4.19813e-08
2.74809e-10
-4.20021e-08
2.19043e-10
-4.20141e-08
1.64717e-10
-4.20175e-08
1.11812e-10
-4.20126e-08
6.03094e-11
-4.19996e-08
1.01888e-11
-4.19788e-08
-3.85699e-11
-8.59872e-11
-4.19503e-08
-1.4489e-09
8.65016e-09
-2.88387e-09
8.56759e-09
-4.30384e-09
8.47904e-09
-5.70779e-09
8.38488e-09
-7.09477e-09
8.28545e-09
-8.46387e-09
8.1811e-09
-9.81426e-09
8.07217e-09
-1.11452e-08
7.95898e-09
-1.24559e-08
7.84185e-09
-1.37458e-08
7.7211e-09
-1.50143e-08
7.59701e-09
-1.62608e-08
7.46989e-09
-1.74848e-08
7.34e-09
-1.86858e-08
7.20764e-09
-1.98636e-08
7.07305e-09
-2.10176e-08
6.93649e-09
-2.21477e-08
6.79821e-09
-2.32536e-08
6.65844e-09
-2.4335e-08
6.5174e-09
-2.53917e-08
6.37531e-09
-2.64237e-08
6.23237e-09
-2.74308e-08
6.08879e-09
-2.84129e-08
5.94474e-09
-2.93701e-08
5.80042e-09
-3.03022e-08
5.65599e-09
-3.12094e-08
5.5116e-09
-3.20917e-08
5.36743e-09
-3.29491e-08
5.22361e-09
-3.37817e-08
5.08027e-09
-3.45898e-08
4.93756e-09
-3.53733e-08
4.79559e-09
-3.61326e-08
4.65448e-09
-3.68677e-08
4.51433e-09
-3.7579e-08
4.37526e-09
-3.82666e-08
4.23735e-09
-3.89307e-08
4.10069e-09
-3.95716e-08
3.96536e-09
-4.01896e-08
3.83145e-09
-4.0785e-08
3.69902e-09
-4.1358e-08
3.56813e-09
-4.1909e-08
3.43886e-09
-4.24383e-08
3.31124e-09
-4.29461e-08
3.18534e-09
-4.34329e-08
3.06119e-09
-4.38988e-08
2.93884e-09
-4.43444e-08
2.81832e-09
-4.47699e-08
2.69967e-09
-4.51757e-08
2.58292e-09
-4.5562e-08
2.46809e-09
-4.59294e-08
2.35519e-09
-4.62781e-08
2.24426e-09
-4.66085e-08
2.13529e-09
-4.6921e-08
2.02832e-09
-4.72159e-08
1.92333e-09
-4.74936e-08
1.82035e-09
-4.77544e-08
1.71936e-09
-4.79988e-08
1.62038e-09
-4.8227e-08
1.52341e-09
-4.84394e-08
1.42843e-09
-4.86364e-08
1.33545e-09
-4.88184e-08
1.24445e-09
-4.89856e-08
1.15542e-09
-4.91385e-08