/*--------------------------------*- C++ -*----------------------------------*\
  =========                 |
  \\      /  F ield         | OpenFOAM: The Open Source CFD Toolbox
   \\    /   O peration     | Website:  https://openfoam.org
    \\  /    A nd           | Version:  8
     \\/     M anipulation  |
\*---------------------------------------------------------------------------*/
FoamFile
{
    version     2.0;
    format      ascii;
    class       surfaceScalarField;
    location    "2000";
    object      phib;
}
// * * * * * * * * * * * * * * * * * * * * * * * * * * * * * * * * * * * * * //

dimensions      [0 3 -1 0 0 0 0];

internalField   nonuniform List<scalar> 
25360
(
-3.80066e-21
-4.26904e-14
-7.56529e-21
-4.23174e-14
-1.12915e-20
-4.19478e-14
-1.49771e-20
-4.15813e-14
-1.86199e-20
-4.12181e-14
-2.22181e-20
-4.0858e-14
-2.57697e-20
-4.05011e-14
-2.9273e-20
-4.01473e-14
-3.27265e-20
-3.97966e-14
-3.61288e-20
-3.94489e-14
-3.94784e-20
-3.91043e-14
-4.27742e-20
-3.87627e-14
-4.60151e-20
-3.84241e-14
-4.91999e-20
-3.80885e-14
-5.23279e-20
-3.77557e-14
-5.53983e-20
-3.74259e-14
-5.84102e-20
-3.7099e-14
-6.13631e-20
-3.67749e-14
-6.42565e-20
-3.64536e-14
-6.70898e-20
-3.61352e-14
-6.98628e-20
-3.58195e-14
-7.25752e-20
-3.55066e-14
-7.52266e-20
-3.51964e-14
-7.7817e-20
-3.4889e-14
-8.03463e-20
-3.45842e-14
-8.28145e-20
-3.42821e-14
-8.52216e-20
-3.39826e-14
-8.75677e-20
-3.36858e-14
-8.98529e-20
-3.33915e-14
-9.20775e-20
-3.30998e-14
-9.42418e-20
-3.28106e-14
-9.6346e-20
-3.2524e-14
-9.83905e-20
-3.22399e-14
-1.00376e-19
-3.19583e-14
-1.02302e-19
-3.16791e-14
-1.0417e-19
-3.14024e-14
-1.0598e-19
-3.1128e-14
-1.07732e-19
-3.08561e-14
-1.09428e-19
-3.05866e-14
-1.11067e-19
-3.03194e-14
-1.12651e-19
-3.00545e-14
-1.14179e-19
-2.9792e-14
-1.15654e-19
-2.95317e-14
-1.17074e-19
-2.92737e-14
-1.18442e-19
-2.9018e-14
-1.19757e-19
-2.87645e-14
-1.21021e-19
-2.85132e-14
-1.22234e-19
-2.82642e-14
-1.23397e-19
-2.80173e-14
-1.24511e-19
-2.77725e-14
-1.25576e-19
-2.75299e-14
-1.26594e-19
-2.72894e-14
-1.27564e-19
-2.7051e-14
-1.28489e-19
-2.68147e-14
-1.29368e-19
-2.65805e-14
-1.30202e-19
-2.63483e-14
-1.30993e-19
-2.61181e-14
-1.31741e-19
-2.58899e-14
-1.32447e-19
-2.56638e-14
-1.33111e-19
-2.54396e-14
-1.33735e-19
-2.52174e-14
-1.3432e-19
-2.49971e-14
-1.34865e-19
-2.47787e-14
-1.35372e-19
-2.45622e-14
-1.35842e-19
-2.43477e-14
-1.36276e-19
-2.4135e-14
-1.36674e-19
-2.39242e-14
-1.37036e-19
-2.37152e-14
-1.37365e-19
-2.3508e-14
-1.37661e-19
-2.33026e-14
-1.37923e-19
-2.30991e-14
-1.38154e-19
-2.28973e-14
-1.38354e-19
-2.26973e-14
-1.38523e-19
-2.2499e-14
-1.38663e-19
-2.23024e-14
-1.38774e-19
-2.21076e-14
-1.38857e-19
-2.19145e-14
-1.38912e-19
-2.17231e-14
-1.38941e-19
-2.15333e-14
-2.13452e-14
-1.38934e-19
-3.91944e-21
-4.26904e-14
-7.80172e-21
-4.23174e-14
-1.16444e-20
-4.19478e-14
-1.54451e-20
-4.15813e-14
-1.92018e-20
-4.12181e-14
-2.29123e-20
-4.0858e-14
-2.65748e-20
-4.05011e-14
-3.01875e-20
-4.01473e-14
-3.37488e-20
-3.97966e-14
-3.72572e-20
-3.94489e-14
-4.07114e-20
-3.91043e-14
-4.41099e-20
-3.87627e-14
-4.74518e-20
-3.84241e-14
-5.07359e-20
-3.80885e-14
-5.39613e-20
-3.77557e-14
-5.71272e-20
-3.74259e-14
-6.02329e-20
-3.7099e-14
-6.32776e-20
-3.67749e-14
-6.62609e-20
-3.64536e-14
-6.91823e-20
-3.61352e-14
-7.20414e-20
-3.58195e-14
-7.48379e-20
-3.55066e-14
-7.75715e-20
-3.51964e-14
-8.02422e-20
-3.4889e-14
-8.28498e-20
-3.45842e-14
-8.53944e-20
-3.42821e-14
-8.78759e-20
-3.39826e-14
-9.02944e-20
-3.36858e-14
-9.26502e-20
-3.33915e-14
-9.49435e-20
-3.30998e-14
-9.71745e-20
-3.28106e-14
-9.93434e-20
-3.2524e-14
-1.01451e-19
-3.22399e-14
-1.03497e-19
-3.19583e-14
-1.05482e-19
-3.16791e-14
-1.07407e-19
-3.14024e-14
-1.09273e-19
-3.1128e-14
-1.11079e-19
-3.08561e-14
-1.12826e-19
-3.05866e-14
-1.14516e-19
-3.03194e-14
-1.16148e-19
-3.00545e-14
-1.17723e-19
-2.9792e-14
-1.19242e-19
-2.95317e-14
-1.20706e-19
-2.92737e-14
-1.22115e-19
-2.9018e-14
-1.2347e-19
-2.87645e-14
-1.24772e-19
-2.85132e-14
-1.26022e-19
-2.82642e-14
-1.2722e-19
-2.80173e-14
-1.28367e-19
-2.77725e-14
-1.29464e-19
-2.75299e-14
-1.30512e-19
-2.72894e-14
-1.31512e-19
-2.7051e-14
-1.32464e-19
-2.68147e-14
-1.33369e-19
-2.65805e-14
-1.34229e-19
-2.63483e-14
-1.35043e-19
-2.61181e-14
-1.35813e-19
-2.58899e-14
-1.36539e-19
-2.56638e-14
-1.37223e-19
-2.54396e-14
-1.37866e-19
-2.52174e-14
-1.38467e-19
-2.49971e-14
-1.39028e-19
-2.47787e-14
-1.3955e-19
-2.45622e-14
-1.40033e-19
-2.43477e-14
-1.40479e-19
-2.4135e-14
-1.40888e-19
-2.39242e-14
-1.41261e-19
-2.37152e-14
-1.41599e-19
-2.3508e-14
-1.41902e-19
-2.33026e-14
-1.42172e-19
-2.30991e-14
-1.42409e-19
-2.28973e-14
-1.42614e-19
-2.26973e-14
-1.42788e-19
-2.2499e-14
-1.42931e-19
-2.23024e-14
-1.43044e-19
-2.21076e-14
-1.43129e-19
-2.19145e-14
-1.43185e-19
-2.17231e-14
-1.43213e-19
-2.15333e-14
-2.13452e-14
-1.43214e-19
-4.16162e-21
-4.26904e-14
-8.28378e-21
-4.23174e-14
-1.23639e-20
-4.19478e-14
-1.63994e-20
-4.15813e-14
-2.03881e-20
-4.12181e-14
-2.43278e-20
-4.0858e-14
-2.82164e-20
-4.05011e-14
-3.20521e-20
-4.01473e-14
-3.58332e-20
-3.97966e-14
-3.95581e-20
-3.94489e-14
-4.32253e-20
-3.91043e-14
-4.68334e-20
-3.87627e-14
-5.03812e-20
-3.84241e-14
-5.38676e-20
-3.80885e-14
-5.72916e-20
-3.77557e-14
-6.06524e-20
-3.74259e-14
-6.39491e-20
-3.7099e-14
-6.7181e-20
-3.67749e-14
-7.03476e-20
-3.64536e-14
-7.34484e-20
-3.61352e-14
-7.6483e-20
-3.58195e-14
-7.9451e-20
-3.55066e-14
-8.23522e-20
-3.51964e-14
-8.51864e-20
-3.4889e-14
-8.79537e-20
-3.45842e-14
-9.06538e-20
-3.42821e-14
-9.3287e-20
-3.39826e-14
-9.58532e-20
-3.36858e-14
-9.83528e-20
-3.33915e-14
-1.00786e-19
-3.30998e-14
-1.03153e-19
-3.28106e-14
-1.05454e-19
-3.2524e-14
-1.07689e-19
-3.22399e-14
-1.0986e-19
-3.19583e-14
-1.11965e-19
-3.16791e-14
-1.14007e-19
-3.14024e-14
-1.15985e-19
-3.1128e-14
-1.17901e-19
-3.08561e-14
-1.19754e-19
-3.05866e-14
-1.21545e-19
-3.03194e-14
-1.23275e-19
-3.00545e-14
-1.24945e-19
-2.9792e-14
-1.26556e-19
-2.95317e-14
-1.28107e-19
-2.92737e-14
-1.29601e-19
-2.9018e-14
-1.31037e-19
-2.87645e-14
-1.32417e-19
-2.85132e-14
-1.33741e-19
-2.82642e-14
-1.35011e-19
-2.80173e-14
-1.36226e-19
-2.77725e-14
-1.37388e-19
-2.75299e-14
-1.38498e-19
-2.72894e-14
-1.39557e-19
-2.7051e-14
-1.40565e-19
-2.68147e-14
-1.41524e-19
-2.65805e-14
-1.42433e-19
-2.63483e-14
-1.43295e-19
-2.61181e-14
-1.4411e-19
-2.58899e-14
-1.44879e-19
-2.56638e-14
-1.45602e-19
-2.54396e-14
-1.46281e-19
-2.52174e-14
-1.46917e-19
-2.49971e-14
-1.4751e-19
-2.47787e-14
-1.48062e-19
-2.45622e-14
-1.48573e-19
-2.43477e-14
-1.49044e-19
-2.4135e-14
-1.49475e-19
-2.39242e-14
-1.49869e-19
-2.37152e-14
-1.50225e-19
-2.3508e-14
-1.50545e-19
-2.33026e-14
-1.50829e-19
-2.30991e-14
-1.51078e-19
-2.28973e-14
-1.51294e-19
-2.26973e-14
-1.51476e-19
-2.2499e-14
-1.51625e-19
-2.23024e-14
-1.51744e-19
-2.21076e-14
-1.51831e-19
-2.19145e-14
-1.51888e-19
-2.17231e-14
-1.51916e-19
-2.15333e-14
-2.13452e-14
-1.51916e-19
-4.53483e-21
-4.26904e-14
-9.02664e-21
-4.23174e-14
-1.34726e-20
-4.19478e-14
-1.78699e-20
-4.15813e-14
-2.22162e-20
-4.12181e-14
-2.6509e-20
-4.0858e-14
-3.07461e-20
-4.05011e-14
-3.49254e-20
-4.01473e-14
-3.90452e-20
-3.97966e-14
-4.31036e-20
-3.94489e-14
-4.70989e-20
-3.91043e-14
-5.10298e-20
-3.87627e-14
-5.48949e-20
-3.84241e-14
-5.8693e-20
-3.80884e-14
-6.2423e-20
-3.77557e-14
-6.60839e-20
-3.74259e-14
-6.96748e-20
-3.7099e-14
-7.31951e-20
-3.67749e-14
-7.66441e-20
-3.64536e-14
-8.00211e-20
-3.61352e-14
-8.33259e-20
-3.58195e-14
-8.65581e-20
-3.55066e-14
-8.97173e-20
-3.51964e-14
-9.28034e-20
-3.4889e-14
-9.58163e-20
-3.45842e-14
-9.87561e-20
-3.42821e-14
-1.01623e-19
-3.39826e-14
-1.04416e-19
-3.36858e-14
-1.07137e-19
-3.33915e-14
-1.09785e-19
-3.30998e-14
-1.12361e-19
-3.28106e-14
-1.14865e-19
-3.2524e-14
-1.17298e-19
-3.22399e-14
-1.19659e-19
-3.19583e-14
-1.21951e-19
-3.16791e-14
-1.24172e-19
-3.14024e-14
-1.26324e-19
-3.1128e-14
-1.28407e-19
-3.08561e-14
-1.30422e-19
-3.05866e-14
-1.3237e-19
-3.03194e-14
-1.34252e-19
-3.00545e-14
-1.36067e-19
-2.9792e-14
-1.37818e-19
-2.95317e-14
-1.39505e-19
-2.92737e-14
-1.41128e-19
-2.9018e-14
-1.42689e-19
-2.87645e-14
-1.44188e-19
-2.85132e-14
-1.45627e-19
-2.82642e-14
-1.47006e-19
-2.80173e-14
-1.48326e-19
-2.77725e-14
-1.49588e-19
-2.75299e-14
-1.50793e-19
-2.72894e-14
-1.51942e-19
-2.7051e-14
-1.53036e-19
-2.68147e-14
-1.54076e-19
-2.65805e-14
-1.55063e-19
-2.63483e-14
-1.55998e-19
-2.61181e-14
-1.56881e-19
-2.58899e-14
-1.57715e-19
-2.56638e-14
-1.58499e-19
-2.54396e-14
-1.59235e-19
-2.52174e-14
-1.59923e-19
-2.49971e-14
-1.60566e-19
-2.47787e-14
-1.61162e-19
-2.45622e-14
-1.61715e-19
-2.43477e-14
-1.62224e-19
-2.4135e-14
-1.6269e-19
-2.39242e-14
-1.63115e-19
-2.37152e-14
-1.63499e-19
-2.3508e-14
-1.63844e-19
-2.33026e-14
-1.6415e-19
-2.30991e-14
-1.64418e-19
-2.28973e-14
-1.64648e-19
-2.26973e-14
-1.64843e-19
-2.2499e-14
-1.65003e-19
-2.23024e-14
-1.65128e-19
-2.21076e-14
-1.6522e-19
-2.19145e-14
-1.65279e-19
-2.17231e-14
-1.65306e-19
-2.15333e-14
-2.13452e-14
-1.65302e-19
-5.05141e-21
-4.26904e-14
-1.00549e-20
-4.23174e-14
-1.50072e-20
-4.19478e-14
-1.99054e-20
-4.15813e-14
-2.47465e-20
-4.12181e-14
-2.9528e-20
-4.0858e-14
-3.42474e-20
-4.05011e-14
-3.89024e-20
-4.01473e-14
-4.34908e-20
-3.97966e-14
-4.80106e-20
-3.94489e-14
-5.24602e-20
-3.91043e-14
-5.68378e-20
-3.87627e-14
-6.11419e-20
-3.84241e-14
-6.53712e-20
-3.80884e-14
-6.95244e-20
-3.77557e-14
-7.36005e-20
-3.74259e-14
-7.75986e-20
-3.7099e-14
-8.15176e-20
-3.67749e-14
-8.53571e-20
-3.64536e-14
-8.91163e-20
-3.61352e-14
-9.27947e-20
-3.58195e-14
-9.6392e-20
-3.55066e-14
-9.9908e-20
-3.51964e-14
-1.03342e-19
-3.4889e-14
-1.06695e-19
-3.45842e-14
-1.09966e-19
-3.42821e-14
-1.13155e-19
-3.39826e-14
-1.16263e-19
-3.36857e-14
-1.19289e-19
-3.33915e-14
-1.22235e-19
-3.30998e-14
-1.25099e-19
-3.28106e-14
-1.27884e-19
-3.2524e-14
-1.30589e-19
-3.22399e-14
-1.33214e-19
-3.19583e-14
-1.35761e-19
-3.16791e-14
-1.3823e-19
-3.14024e-14
-1.40622e-19
-3.1128e-14
-1.42937e-19
-3.08561e-14
-1.45176e-19
-3.05866e-14
-1.4734e-19
-3.03194e-14
-1.4943e-19
-3.00545e-14
-1.51447e-19
-2.9792e-14
-1.53391e-19
-2.95317e-14
-1.55263e-19
-2.92737e-14
-1.57065e-19
-2.9018e-14
-1.58798e-19
-2.87645e-14
-1.60462e-19
-2.85132e-14
-1.62058e-19
-2.82642e-14
-1.63587e-19
-2.80173e-14
-1.65051e-19
-2.77725e-14
-1.66451e-19
-2.75299e-14
-1.67787e-19
-2.72894e-14
-1.69061e-19
-2.7051e-14
-1.70273e-19
-2.68147e-14
-1.71425e-19
-2.65805e-14
-1.72518e-19
-2.63483e-14
-1.73553e-19
-2.61181e-14
-1.74531e-19
-2.58899e-14
-1.75453e-19
-2.56638e-14
-1.7632e-19
-2.54396e-14
-1.77133e-19
-2.52174e-14
-1.77894e-19
-2.49971e-14
-1.78603e-19
-2.47787e-14
-1.79262e-19
-2.45622e-14
-1.79871e-19
-2.43477e-14
-1.80432e-19
-2.4135e-14
-1.80946e-19
-2.39242e-14
-1.81414e-19
-2.37152e-14
-1.81836e-19
-2.3508e-14
-1.82214e-19
-2.33026e-14
-1.82549e-19
-2.30991e-14
-1.82842e-19
-2.28973e-14
-1.83094e-19
-2.26973e-14
-1.83305e-19
-2.2499e-14
-1.83478e-19
-2.23024e-14
-1.83612e-19
-2.21076e-14
-1.83709e-19
-2.19145e-14
-1.8377e-19
-2.17231e-14
-1.83796e-19
-2.15333e-14
-2.13452e-14
-1.83787e-19
-5.72857e-21
-4.26904e-14
-1.14027e-20
-4.23174e-14
-1.70189e-20
-4.19478e-14
-2.25735e-20
-4.15813e-14
-2.80633e-20
-4.12181e-14
-3.34854e-20
-4.0858e-14
-3.88369e-20
-4.05011e-14
-4.41151e-20
-4.01473e-14
-4.93177e-20
-3.97966e-14
-5.44424e-20
-3.94489e-14
-5.94871e-20
-3.91043e-14
-6.445e-20
-3.87627e-14
-6.93293e-20
-3.84241e-14
-7.41235e-20
-3.80884e-14
-7.88312e-20
-3.77557e-14
-8.34512e-20
-3.74259e-14
-8.79823e-20
-3.7099e-14
-9.24237e-20
-3.67749e-14
-9.67744e-20
-3.64536e-14
-1.01034e-19
-3.61352e-14
-1.05202e-19
-3.58195e-14
-1.09277e-19
-3.55066e-14
-1.1326e-19
-3.51964e-14
-1.1715e-19
-3.4889e-14
-1.20947e-19
-3.45842e-14
-1.24651e-19
-3.42821e-14
-1.28262e-19
-3.39826e-14
-1.31781e-19
-3.36857e-14
-1.35207e-19
-3.33915e-14
-1.38541e-19
-3.30998e-14
-1.41783e-19
-3.28106e-14
-1.44934e-19
-3.2524e-14
-1.47995e-19
-3.22399e-14
-1.50965e-19
-3.19583e-14
-1.53846e-19
-3.16791e-14
-1.56639e-19
-3.14023e-14
-1.59343e-19
-3.1128e-14
-1.61961e-19
-3.08561e-14
-1.64492e-19
-3.05866e-14
-1.66938e-19
-3.03194e-14
-1.693e-19
-3.00545e-14
-1.71579e-19
-2.9792e-14
-1.73775e-19
-2.95317e-14
-1.7589e-19
-2.92737e-14
-1.77925e-19
-2.9018e-14
-1.79881e-19
-2.87645e-14
-1.81759e-19
-2.85132e-14
-1.83561e-19
-2.82642e-14
-1.85286e-19
-2.80173e-14
-1.86938e-19
-2.77725e-14
-1.88516e-19
-2.75299e-14
-1.90022e-19
-2.72894e-14
-1.91457e-19
-2.7051e-14
-1.92823e-19
-2.68147e-14
-1.94121e-19
-2.65805e-14
-1.95351e-19
-2.63483e-14
-1.96516e-19
-2.61181e-14
-1.97616e-19
-2.58899e-14
-1.98653e-19
-2.56638e-14
-1.99627e-19
-2.54396e-14
-2.00541e-19
-2.52174e-14
-2.01395e-19
-2.49971e-14
-2.02191e-19
-2.47787e-14
-2.02929e-19
-2.45622e-14
-2.03612e-19
-2.43477e-14
-2.0424e-19
-2.4135e-14
-2.04814e-19
-2.39242e-14
-2.05336e-19
-2.37152e-14
-2.05807e-19
-2.3508e-14
-2.06228e-19
-2.33026e-14
-2.066e-19
-2.30991e-14
-2.06924e-19
-2.28973e-14
-2.07202e-19
-2.26973e-14
-2.07435e-19
-2.2499e-14
-2.07623e-19
-2.23024e-14
-2.07768e-19
-2.21076e-14
-2.07872e-19
-2.19145e-14
-2.07934e-19
-2.17231e-14
-2.07956e-19
-2.15333e-14
-2.13452e-14
-2.07939e-19
-6.58905e-21
-4.26903e-14
-1.31155e-20
-4.23174e-14
-1.95751e-20
-4.19477e-14
-2.59638e-20
-4.15813e-14
-3.2278e-20
-4.12181e-14
-3.85139e-20
-4.0858e-14
-4.46685e-20
-4.05011e-14
-5.07386e-20
-4.01473e-14
-5.67214e-20
-3.97966e-14
-6.26143e-20
-3.94489e-14
-6.8415e-20
-3.91043e-14
-7.41212e-20
-3.87627e-14
-7.9731e-20
-3.84241e-14
-8.52425e-20
-3.80884e-14
-9.06542e-20
-3.77557e-14
-9.59646e-20
-3.74259e-14
-1.01172e-19
-3.70989e-14
-1.06277e-19
-3.67749e-14
-1.11276e-19
-3.64536e-14
-1.16171e-19
-3.61352e-14
-1.20959e-19
-3.58195e-14
-1.25641e-19
-3.55066e-14
-1.30216e-19
-3.51964e-14
-1.34683e-19
-3.4889e-14
-1.39044e-19
-3.45842e-14
-1.43297e-19
-3.42821e-14
-1.47443e-19
-3.39826e-14
-1.51482e-19
-3.36857e-14
-1.55415e-19
-3.33915e-14
-1.59241e-19
-3.30998e-14
-1.62961e-19
-3.28106e-14
-1.66577e-19
-3.2524e-14
-1.70087e-19
-3.22399e-14
-1.73494e-19
-3.19583e-14
-1.76798e-19
-3.16791e-14
-1.8e-19
-3.14023e-14
-1.831e-19
-3.1128e-14
-1.861e-19
-3.08561e-14
-1.89e-19
-3.05866e-14
-1.91803e-19
-3.03194e-14
-1.94508e-19
-3.00545e-14
-1.97117e-19
-2.9792e-14
-1.99632e-19
-2.95317e-14
-2.02053e-19
-2.92737e-14
-2.04382e-19
-2.9018e-14
-2.0662e-19
-2.87645e-14
-2.08768e-19
-2.85132e-14
-2.10827e-19
-2.82642e-14
-2.128e-19
-2.80173e-14
-2.14687e-19
-2.77725e-14
-2.1649e-19
-2.75299e-14
-2.1821e-19
-2.72894e-14
-2.19849e-19
-2.7051e-14
-2.21407e-19
-2.68147e-14
-2.22887e-19
-2.65805e-14
-2.2429e-19
-2.63483e-14
-2.25617e-19
-2.61181e-14
-2.2687e-19
-2.58899e-14
-2.28051e-19
-2.56638e-14
-2.29159e-19
-2.54396e-14
-2.30198e-19
-2.52174e-14
-2.31169e-19
-2.49971e-14
-2.32072e-19
-2.47787e-14
-2.3291e-19
-2.45622e-14
-2.33683e-19
-2.43477e-14
-2.34394e-19
-2.4135e-14
-2.35043e-19
-2.39242e-14
-2.35632e-19
-2.37152e-14
-2.36163e-19
-2.3508e-14
-2.36636e-19
-2.33026e-14
-2.37053e-19
-2.30991e-14
-2.37416e-19
-2.28973e-14
-2.37725e-19
-2.26973e-14
-2.37982e-19
-2.2499e-14
-2.38188e-19
-2.23024e-14
-2.38346e-19
-2.21076e-14
-2.38454e-19
-2.19145e-14
-2.38516e-19
-2.17231e-14
-2.38533e-19
-2.15333e-14
-2.13452e-14
-2.38504e-19
-7.66209e-21
-4.26903e-14
-1.52513e-20
-4.23174e-14
-2.27627e-20
-4.19477e-14
-3.01916e-20
-4.15813e-14
-3.75334e-20
-4.12181e-14
-4.47842e-20
-4.0858e-14
-5.194e-20
-4.05011e-14
-5.89972e-20
-4.01473e-14
-6.59526e-20
-3.97966e-14
-7.28031e-20
-3.94489e-14
-7.95459e-20
-3.91043e-14
-8.61785e-20
-3.87627e-14
-9.26984e-20
-3.84241e-14
-9.91036e-20
-3.80884e-14
-1.05392e-19
-3.77557e-14
-1.11563e-19
-3.74259e-14
-1.17613e-19
-3.70989e-14
-1.23543e-19
-3.67749e-14
-1.2935e-19
-3.64536e-14
-1.35035e-19
-3.61352e-14
-1.40595e-19
-3.58195e-14
-1.46032e-19
-3.55066e-14
-1.51343e-19
-3.51964e-14
-1.56529e-19
-3.4889e-14
-1.61591e-19
-3.45842e-14
-1.66526e-19
-3.42821e-14
-1.71337e-19
-3.39826e-14
-1.76023e-19
-3.36857e-14
-1.80585e-19
-3.33915e-14
-1.85022e-19
-3.30998e-14
-1.89336e-19
-3.28106e-14
-1.93528e-19
-3.2524e-14
-1.97597e-19
-3.22399e-14
-2.01545e-19
-3.19583e-14
-2.05373e-19
-3.16791e-14
-2.09082e-19
-3.14023e-14
-2.12672e-19
-3.1128e-14
-2.16146e-19
-3.08561e-14
-2.19504e-19
-3.05866e-14
-2.22748e-19
-3.03194e-14
-2.25878e-19
-3.00545e-14
-2.28896e-19
-2.9792e-14
-2.31804e-19
-2.95317e-14
-2.34603e-19
-2.92737e-14
-2.37295e-19
-2.9018e-14
-2.3988e-19
-2.87645e-14
-2.42362e-19
-2.85132e-14
-2.4474e-19
-2.82642e-14
-2.47017e-19
-2.80173e-14
-2.49194e-19
-2.77725e-14
-2.51274e-19
-2.75299e-14
-2.53257e-19
-2.72894e-14
-2.55145e-19
-2.7051e-14
-2.56941e-19
-2.68147e-14
-2.58645e-19
-2.65805e-14
-2.60259e-19
-2.63483e-14
-2.61786e-19
-2.61181e-14
-2.63226e-19
-2.58899e-14
-2.64582e-19
-2.56638e-14
-2.65854e-19
-2.54396e-14
-2.67046e-19
-2.52174e-14
-2.68158e-19
-2.49971e-14
-2.69192e-19
-2.47787e-14
-2.7015e-19
-2.45622e-14
-2.71033e-19
-2.43477e-14
-2.71844e-19
-2.4135e-14
-2.72583e-19
-2.39242e-14
-2.73253e-19
-2.37152e-14
-2.73854e-19
-2.3508e-14
-2.74389e-19
-2.33026e-14
-2.74859e-19
-2.30991e-14
-2.75266e-19
-2.28973e-14
-2.75612e-19
-2.26973e-14
-2.75897e-19
-2.2499e-14
-2.76123e-19
-2.23024e-14
-2.76292e-19
-2.21076e-14
-2.76405e-19
-2.19145e-14
-2.76464e-19
-2.17231e-14
-2.7647e-19
-2.15333e-14
-2.13452e-14
-2.76425e-19
-8.98463e-21
-4.26903e-14
-1.78838e-20
-4.23174e-14
-2.66915e-20
-4.19477e-14
-3.54021e-20
-4.15813e-14
-4.40105e-20
-4.12181e-14
-5.25117e-20
-4.0858e-14
-6.09012e-20
-4.05011e-14
-6.91747e-20
-4.01473e-14
-7.73283e-20
-3.97966e-14
-8.53584e-20
-3.94489e-14
-9.32616e-20
-3.91043e-14
-1.01035e-19
-3.87627e-14
-1.08676e-19
-3.84241e-14
-1.16181e-19
-3.80884e-14
-1.23549e-19
-3.77557e-14
-1.30778e-19
-3.74259e-14
-1.37865e-19
-3.70989e-14
-1.4481e-19
-3.67749e-14
-1.51612e-19
-3.64536e-14
-1.58268e-19
-3.61352e-14
-1.64778e-19
-3.58195e-14
-1.71141e-19
-3.55066e-14
-1.77358e-19
-3.51964e-14
-1.83427e-19
-3.4889e-14
-1.89349e-19
-3.45842e-14
-1.95123e-19
-3.42821e-14
-2.0075e-19
-3.39826e-14
-2.06229e-19
-3.36857e-14
-2.11563e-19
-3.33915e-14
-2.1675e-19
-3.30998e-14
-2.21791e-19
-3.28106e-14
-2.26689e-19
-3.2524e-14
-2.31442e-19
-3.22399e-14
-2.36054e-19
-3.19582e-14
-2.40523e-19
-3.16791e-14
-2.44853e-19
-3.14023e-14
-2.49043e-19
-3.1128e-14
-2.53096e-19
-3.08561e-14
-2.57013e-19
-3.05865e-14
-2.60795e-19
-3.03194e-14
-2.64444e-19
-3.00545e-14
-2.67961e-19
-2.9792e-14
-2.71349e-19
-2.95317e-14
-2.74609e-19
-2.92737e-14
-2.77743e-19
-2.9018e-14
-2.80752e-19
-2.87645e-14
-2.83638e-19
-2.85132e-14
-2.86404e-19
-2.82642e-14
-2.89051e-19
-2.80172e-14
-2.91581e-19
-2.77725e-14
-2.93996e-19
-2.75299e-14
-2.96297e-19
-2.72894e-14
-2.98488e-19
-2.7051e-14
-3.0057e-19
-2.68147e-14
-3.02545e-19
-2.65805e-14
-3.04415e-19
-2.63483e-14
-3.06181e-19
-2.61181e-14
-3.07847e-19
-2.58899e-14
-3.09413e-19
-2.56638e-14
-3.10882e-19
-2.54396e-14
-3.12257e-19
-2.52174e-14
-3.13538e-19
-2.49971e-14
-3.14728e-19
-2.47787e-14
-3.15829e-19
-2.45622e-14
-3.16843e-19
-2.43477e-14
-3.17772e-19
-2.4135e-14
-3.18617e-19
-2.39242e-14
-3.19381e-19
-2.37152e-14
-3.20065e-19
-2.3508e-14
-3.20672e-19
-2.33026e-14
-3.21203e-19
-2.30991e-14
-3.2166e-19
-2.28973e-14
-3.22045e-19
-2.26973e-14
-3.22359e-19
-2.2499e-14
-3.22606e-19
-2.23024e-14
-3.22785e-19
-2.21076e-14
-3.22899e-19
-2.19145e-14
-3.2295e-19
-2.17231e-14
-3.2294e-19
-2.15333e-14
-2.13452e-14
-3.22869e-19
-1.06029e-20
-4.26903e-14
-2.11049e-20
-4.23174e-14
-3.14987e-20
-4.19477e-14
-4.17777e-20
-4.15813e-14
-5.19356e-20
-4.1218e-14
-6.19666e-20
-4.0858e-14
-7.18652e-20
-4.05011e-14
-8.16263e-20
-4.01473e-14
-9.12452e-20
-3.97965e-14
-1.00718e-19
-3.94489e-14
-1.1004e-19
-3.91043e-14
-1.19207e-19
-3.87627e-14
-1.28218e-19
-3.84241e-14
-1.37068e-19
-3.80884e-14
-1.45755e-19
-3.77557e-14
-1.54276e-19
-3.74259e-14
-1.6263e-19
-3.70989e-14
-1.70815e-19
-3.67748e-14
-1.78829e-19
-3.64536e-14
-1.86671e-19
-3.61352e-14
-1.94339e-19
-3.58195e-14
-2.01834e-19
-3.55066e-14
-2.09154e-19
-3.51964e-14
-2.16299e-19
-3.48889e-14
-2.23269e-19
-3.45842e-14
-2.30065e-19
-3.42821e-14
-2.36685e-19
-3.39826e-14
-2.43131e-19
-3.36857e-14
-2.49403e-19
-3.33915e-14
-2.55502e-19
-3.30998e-14
-2.61428e-19
-3.28106e-14
-2.67183e-19
-3.2524e-14
-2.72768e-19
-3.22399e-14
-2.78184e-19
-3.19582e-14
-2.83432e-19
-3.16791e-14
-2.88515e-19
-3.14023e-14
-2.93432e-19
-3.1128e-14
-2.98187e-19
-3.08561e-14
-3.0278e-19
-3.05865e-14
-3.07214e-19
-3.03194e-14
-3.11491e-19
-3.00545e-14
-3.15612e-19
-2.97919e-14
-3.19579e-19
-2.95317e-14
-3.23395e-19
-2.92737e-14
-3.27062e-19
-2.9018e-14
-3.30581e-19
-2.87645e-14
-3.33956e-19
-2.85132e-14
-3.37188e-19
-2.82642e-14
-3.40279e-19
-2.80172e-14
-3.43233e-19
-2.77725e-14
-3.4605e-19
-2.75299e-14
-3.48734e-19
-2.72894e-14
-3.51287e-19
-2.7051e-14
-3.53712e-19
-2.68147e-14
-3.5601e-19
-2.65805e-14
-3.58184e-19
-2.63483e-14
-3.60236e-19
-2.61181e-14
-3.6217e-19
-2.58899e-14
-3.63986e-19
-2.56638e-14
-3.65688e-19
-2.54396e-14
-3.67279e-19
-2.52174e-14
-3.68759e-19
-2.49971e-14
-3.70133e-19
-2.47787e-14
-3.71401e-19
-2.45622e-14
-3.72567e-19
-2.43477e-14
-3.73633e-19
-2.4135e-14
-3.746e-19
-2.39241e-14
-3.75472e-19
-2.37152e-14
-3.76251e-19
-2.3508e-14
-3.76938e-19
-2.33026e-14
-3.77537e-19
-2.30991e-14
-3.78048e-19
-2.28973e-14
-3.78475e-19
-2.26973e-14
-3.7882e-19
-2.2499e-14
-3.79084e-19
-2.23024e-14
-3.79269e-19
-2.21076e-14
-3.79379e-19
-2.19145e-14
-3.79414e-19
-2.17231e-14
-3.79377e-19
-2.15333e-14
-2.13452e-14
-3.7927e-19
-1.25747e-20
-4.26903e-14
-2.50295e-20
-4.23174e-14
-3.73557e-20
-4.19477e-14
-4.95455e-20
-4.15813e-14
-6.1591e-20
-4.1218e-14
-7.34854e-20
-4.0858e-14
-8.5222e-20
-4.0501e-14
-9.67947e-20
-4.01472e-14
-1.08198e-19
-3.97965e-14
-1.19426e-19
-3.94489e-14
-1.30475e-19
-3.91043e-14
-1.4134e-19
-3.87627e-14
-1.52017e-19
-3.84241e-14
-1.62503e-19
-3.80884e-14
-1.72793e-19
-3.77557e-14
-1.82887e-19
-3.74259e-14
-1.9278e-19
-3.70989e-14
-2.02471e-19
-3.67748e-14
-2.11959e-19
-3.64536e-14
-2.2124e-19
-3.61351e-14
-2.30315e-19
-3.58195e-14
-2.39183e-19
-3.55066e-14
-2.47842e-19
-3.51964e-14
-2.56292e-19
-3.48889e-14
-2.64533e-19
-3.45842e-14
-2.72566e-19
-3.4282e-14
-2.80389e-19
-3.39826e-14
-2.88005e-19
-3.36857e-14
-2.95413e-19
-3.33914e-14
-3.02615e-19
-3.30998e-14
-3.09611e-19
-3.28106e-14
-3.16403e-19
-3.2524e-14
-3.22991e-19
-3.22399e-14
-3.29379e-19
-3.19582e-14
-3.35567e-19
-3.16791e-14
-3.41556e-19
-3.14023e-14
-3.4735e-19
-3.1128e-14
-3.5295e-19
-3.08561e-14
-3.58357e-19
-3.05865e-14
-3.63575e-19
-3.03193e-14
-3.68606e-19
-3.00545e-14
-3.73451e-19
-2.97919e-14
-3.78114e-19
-2.95317e-14
-3.82596e-19
-2.92737e-14
-3.86902e-19
-2.9018e-14
-3.91032e-19
-2.87645e-14
-3.9499e-19
-2.85132e-14
-3.98778e-19
-2.82641e-14
-4.024e-19
-2.80172e-14
-4.05858e-19
-2.77725e-14
-4.09154e-19
-2.75299e-14
-4.12292e-19
-2.72894e-14
-4.15275e-19
-2.7051e-14
-4.18105e-19
-2.68147e-14
-4.20785e-19
-2.65805e-14
-4.23319e-19
-2.63483e-14
-4.25708e-19
-2.61181e-14
-4.27956e-19
-2.58899e-14
-4.30066e-19
-2.56638e-14
-4.32041e-19
-2.54396e-14
-4.33883e-19
-2.52174e-14
-4.35596e-19
-2.49971e-14
-4.37181e-19
-2.47787e-14
-4.38643e-19
-2.45622e-14
-4.39983e-19
-2.43477e-14
-4.41205e-19
-2.4135e-14
-4.42311e-19
-2.39241e-14
-4.43305e-19
-2.37152e-14
-4.44188e-19
-2.3508e-14
-4.44963e-19
-2.33026e-14
-4.45633e-19
-2.30991e-14
-4.46202e-19
-2.28973e-14
-4.4667e-19
-2.26973e-14
-4.47041e-19
-2.2499e-14
-4.47318e-19
-2.23024e-14
-4.47502e-19
-2.21076e-14
-4.47597e-19
-2.19145e-14
-4.47604e-19
-2.17231e-14
-4.47526e-19
-2.15333e-14
-2.13452e-14
-4.47366e-19
-1.49719e-20
-4.26903e-14
-2.98007e-20
-4.23174e-14
-4.44762e-20
-4.19477e-14
-5.89885e-20
-4.15813e-14
-7.33284e-20
-4.1218e-14
-8.74874e-20
-4.0858e-14
-1.01458e-19
-4.0501e-14
-1.15231e-19
-4.01472e-14
-1.28802e-19
-3.97965e-14
-1.42163e-19
-3.94489e-14
-1.55309e-19
-3.91043e-14
-1.68234e-19
-3.87627e-14
-1.80934e-19
-3.8424e-14
-1.93404e-19
-3.80884e-14
-2.05641e-19
-3.77557e-14
-2.1764e-19
-3.74258e-14
-2.294e-19
-3.70989e-14
-2.40917e-19
-3.67748e-14
-2.52189e-19
-3.64536e-14
-2.63215e-19
-3.61351e-14
-2.73992e-19
-3.58195e-14
-2.84521e-19
-3.55066e-14
-2.94799e-19
-3.51964e-14
-3.04827e-19
-3.48889e-14
-3.14604e-19
-3.45842e-14
-3.24131e-19
-3.4282e-14
-3.33407e-19
-3.39826e-14
-3.42434e-19
-3.36857e-14
-3.51213e-19
-3.33914e-14
-3.59743e-19
-3.30997e-14
-3.68028e-19
-3.28106e-14
-3.76068e-19
-3.2524e-14
-3.83864e-19
-3.22399e-14
-3.91419e-19
-3.19582e-14
-3.98736e-19
-3.16791e-14
-4.05815e-19
-3.14023e-14
-4.12659e-19
-3.1128e-14
-4.19272e-19
-3.08561e-14
-4.25655e-19
-3.05865e-14
-4.3181e-19
-3.03193e-14
-4.37742e-19
-3.00545e-14
-4.43453e-19
-2.97919e-14
-4.48945e-19
-2.95317e-14
-4.54223e-19
-2.92737e-14
-4.59288e-19
-2.9018e-14
-4.64144e-19
-2.87645e-14
-4.68795e-19
-2.85132e-14
-4.73244e-19
-2.82641e-14
-4.77494e-19
-2.80172e-14
-4.81548e-19
-2.77725e-14
-4.85411e-19
-2.75299e-14
-4.89084e-19
-2.72894e-14
-4.92573e-19
-2.7051e-14
-4.95879e-19
-2.68147e-14
-4.99008e-19
-2.65805e-14
-5.01962e-19
-2.63483e-14
-5.04744e-19
-2.61181e-14
-5.07359e-19
-2.58899e-14
-5.09809e-19
-2.56638e-14
-5.12099e-19
-2.54396e-14
-5.14231e-19
-2.52173e-14
-5.16209e-19
-2.49971e-14
-5.18037e-19
-2.47787e-14
-5.19718e-19
-2.45622e-14
-5.21255e-19
-2.43477e-14
-5.22651e-19
-2.4135e-14
-5.23911e-19
-2.39241e-14
-5.25036e-19
-2.37152e-14
-5.26031e-19
-2.3508e-14
-5.26899e-19
-2.33026e-14
-5.27643e-19
-2.30991e-14
-5.28266e-19
-2.28973e-14
-5.2877e-19
-2.26973e-14
-5.2916e-19
-2.2499e-14
-5.29439e-19
-2.23024e-14
-5.29608e-19
-2.21076e-14
-5.29671e-19
-2.19145e-14
-5.29632e-19
-2.17231e-14
-5.29492e-19
-2.15333e-14
-2.13452e-14
-5.29255e-19
-1.78841e-20
-4.26903e-14
-3.55971e-20
-4.23173e-14
-5.31263e-20
-4.19477e-14
-7.04597e-20
-4.15812e-14
-8.75863e-20
-4.1218e-14
-1.04495e-19
-4.08579e-14
-1.21178e-19
-4.0501e-14
-1.37623e-19
-4.01472e-14
-1.53825e-19
-3.97965e-14
-1.69774e-19
-3.94489e-14
-1.85464e-19
-3.91042e-14
-2.00888e-19
-3.87626e-14
-2.16041e-19
-3.8424e-14
-2.30916e-19
-3.80884e-14
-2.45511e-19
-3.77556e-14
-2.59819e-19
-3.74258e-14
-2.73838e-19
-3.70989e-14
-2.87565e-19
-3.67748e-14
-3.00997e-19
-3.64536e-14
-3.14132e-19
-3.61351e-14
-3.26967e-19
-3.58195e-14
-3.39502e-19
-3.55065e-14
-3.51736e-19
-3.51964e-14
-3.63668e-19
-3.48889e-14
-3.75298e-19
-3.45841e-14
-3.86626e-19
-3.4282e-14
-3.97653e-19
-3.39826e-14
-4.0838e-19
-3.36857e-14
-4.18807e-19
-3.33914e-14
-4.28935e-19
-3.30997e-14
-4.38768e-19
-3.28106e-14
-4.48306e-19
-3.2524e-14
-4.57551e-19
-3.22399e-14
-4.66507e-19
-3.19582e-14
-4.75175e-19
-3.1679e-14
-4.83558e-19
-3.14023e-14
-4.91659e-19
-3.1128e-14
-4.99481e-19
-3.08561e-14
-5.07027e-19
-3.05865e-14
-5.14301e-19
-3.03193e-14
-5.21306e-19
-3.00545e-14
-5.28046e-19
-2.97919e-14
-5.34524e-19
-2.95317e-14
-5.40744e-19
-2.92737e-14
-5.4671e-19
-2.9018e-14
-5.52426e-19
-2.87645e-14
-5.57896e-19
-2.85132e-14
-5.63123e-19
-2.82641e-14
-5.68113e-19
-2.80172e-14
-5.72868e-19
-2.77725e-14
-5.77394e-19
-2.75299e-14
-5.81695e-19
-2.72894e-14
-5.85774e-19
-2.7051e-14
-5.89636e-19
-2.68147e-14
-5.93286e-19
-2.65804e-14
-5.96726e-19
-2.63483e-14
-5.99963e-19
-2.61181e-14
-6.02999e-19
-2.58899e-14
-6.0584e-19
-2.56638e-14
-6.08489e-19
-2.54396e-14
-6.10951e-19
-2.52173e-14
-6.13229e-19
-2.49971e-14
-6.15328e-19
-2.47787e-14
-6.17253e-19
-2.45622e-14
-6.19006e-19
-2.43477e-14
-6.20593e-19
-2.4135e-14
-6.22017e-19
-2.39241e-14
-6.23282e-19
-2.37152e-14
-6.24392e-19
-2.3508e-14
-6.25352e-19
-2.33026e-14
-6.26164e-19
-2.30991e-14
-6.26833e-19
-2.28973e-14
-6.27362e-19
-2.26973e-14
-6.27755e-19
-2.2499e-14
-6.28016e-19
-2.23024e-14
-6.28149e-19
-2.21076e-14
-6.28156e-19
-2.19145e-14
-6.28042e-19
-2.17231e-14
-6.27809e-19
-2.15333e-14
-2.13452e-14
-6.27462e-19
-2.14236e-20
-4.26903e-14
-4.26419e-20
-4.23173e-14
-6.36392e-20
-4.19477e-14
-8.44009e-20
-4.15812e-14
-1.04913e-19
-4.1218e-14
-1.25163e-19
-4.08579e-14
-1.4514e-19
-4.0501e-14
-1.6483e-19
-4.01472e-14
-1.84226e-19
-3.97965e-14
-2.03316e-19
-3.94488e-14
-2.22093e-19
-3.91042e-14
-2.40549e-19
-3.87626e-14
-2.58676e-19
-3.8424e-14
-2.76467e-19
-3.80884e-14
-2.93919e-19
-3.77556e-14
-3.11024e-19
-3.74258e-14
-3.27779e-19
-3.70989e-14
-3.4418e-19
-3.67748e-14
-3.60224e-19
-3.64535e-14
-3.75908e-19
-3.61351e-14
-3.9123e-19
-3.58194e-14
-4.06188e-19
-3.55065e-14
-4.20782e-19
-3.51964e-14
-4.3501e-19
-3.48889e-14
-4.48874e-19
-3.45841e-14
-4.62372e-19
-3.4282e-14
-4.75505e-19
-3.39825e-14
-4.88275e-19
-3.36857e-14
-5.00683e-19
-3.33914e-14
-5.12731e-19
-3.30997e-14
-5.24421e-19
-3.28106e-14
-5.35755e-19
-3.2524e-14
-5.46735e-19
-3.22398e-14
-5.57366e-19
-3.19582e-14
-5.67649e-19
-3.1679e-14
-5.77589e-19
-3.14023e-14
-5.87188e-19
-3.1128e-14
-5.96451e-19
-3.08561e-14
-6.05382e-19
-3.05865e-14
-6.13985e-19
-3.03193e-14
-6.22263e-19
-3.00545e-14
-6.30222e-19
-2.97919e-14
-6.37867e-19
-2.95317e-14
-6.452e-19
-2.92737e-14
-6.52229e-19
-2.9018e-14
-6.58956e-19
-2.87645e-14
-6.65388e-19
-2.85132e-14
-6.71529e-19
-2.82641e-14
-6.77385e-19
-2.80172e-14
-6.82959e-19
-2.77725e-14
-6.88258e-19
-2.75299e-14
-6.93287e-19
-2.72894e-14
-6.98051e-19
-2.7051e-14
-7.02554e-19
-2.68147e-14
-7.06803e-19
-2.65804e-14
-7.10803e-19
-2.63482e-14
-7.14558e-19
-2.61181e-14
-7.18074e-19
-2.58899e-14
-7.21356e-19
-2.56638e-14
-7.24409e-19
-2.54396e-14
-7.27238e-19
-2.52173e-14
-7.29849e-19
-2.49971e-14
-7.32247e-19
-2.47787e-14
-7.34436e-19
-2.45622e-14
-7.36421e-19
-2.43477e-14
-7.38208e-19
-2.4135e-14
-7.39801e-19
-2.39241e-14
-7.41206e-19
-2.37152e-14
-7.42426e-19
-2.3508e-14
-7.43467e-19
-2.33026e-14
-7.44333e-19
-2.30991e-14
-7.4503e-19
-2.28973e-14
-7.4556e-19
-2.26973e-14
-7.4593e-19
-2.2499e-14
-7.46143e-19
-2.23024e-14
-7.46204e-19
-2.21076e-14
-7.46117e-19
-2.19145e-14
-7.45886e-19
-2.17231e-14
-7.45516e-19
-2.15333e-14
-2.13452e-14
-7.4501e-19
-2.57315e-20
-4.26902e-14
-5.12157e-20
-4.23173e-14
-7.64335e-20
-4.19476e-14
-1.01367e-19
-4.15812e-14
-1.25998e-19
-4.1218e-14
-1.50313e-19
-4.08579e-14
-1.74295e-19
-4.0501e-14
-1.97931e-19
-4.01472e-14
-2.21209e-19
-3.97965e-14
-2.44117e-19
-3.94488e-14
-2.66644e-19
-3.91042e-14
-2.88781e-19
-3.87626e-14
-3.10518e-19
-3.8424e-14
-3.31848e-19
-3.80883e-14
-3.52764e-19
-3.77556e-14
-3.73259e-19
-3.74258e-14
-3.93329e-19
-3.70989e-14
-4.12968e-19