/*--------------------------------*- C++ -*----------------------------------*\
  =========                 |
  \\      /  F ield         | OpenFOAM: The Open Source CFD Toolbox
   \\    /   O peration     | Website:  https://openfoam.org
    \\  /    A nd           | Version:  8
     \\/     M anipulation  |
\*---------------------------------------------------------------------------*/
FoamFile
{
    version     2.0;
    format      ascii;
    class       volVectorField;
    location    "2000";
    object      Ua;
}
// * * * * * * * * * * * * * * * * * * * * * * * * * * * * * * * * * * * * * //

dimensions      [0 1 -1 0 0 0 0];

internalField   nonuniform List<vector> 
12800
(
(-8.55954e-10 1.23599e-09 0)
(-2.55975e-09 1.23507e-09 0)
(-4.24678e-09 1.23324e-09 0)
(-5.91601e-09 1.23054e-09 0)
(-7.56646e-09 1.22699e-09 0)
(-9.19721e-09 1.22261e-09 0)
(-1.08074e-08 1.21744e-09 0)
(-1.23963e-08 1.21148e-09 0)
(-1.3963e-08 1.20478e-09 0)
(-1.55071e-08 1.19736e-09 0)
(-1.70277e-08 1.18923e-09 0)
(-1.85243e-08 1.18043e-09 0)
(-1.99964e-08 1.17098e-09 0)
(-2.14436e-08 1.16091e-09 0)
(-2.28653e-08 1.15023e-09 0)
(-2.42612e-08 1.13898e-09 0)
(-2.5631e-08 1.12717e-09 0)
(-2.69744e-08 1.11482e-09 0)
(-2.8291e-08 1.10197e-09 0)
(-2.95808e-08 1.08864e-09 0)
(-3.08434e-08 1.07484e-09 0)
(-3.20788e-08 1.06059e-09 0)
(-3.32867e-08 1.04593e-09 0)
(-3.44673e-08 1.03087e-09 0)
(-3.56203e-08 1.01542e-09 0)
(-3.67458e-08 9.99622e-10 0)
(-3.78437e-08 9.8348e-10 0)
(-3.89142e-08 9.67017e-10 0)
(-3.99573e-08 9.50253e-10 0)
(-4.09729e-08 9.33204e-10 0)
(-4.19614e-08 9.15891e-10 0)
(-4.29227e-08 8.98329e-10 0)
(-4.3857e-08 8.80536e-10 0)
(-4.47645e-08 8.62528e-10 0)
(-4.56454e-08 8.44322e-10 0)
(-4.64999e-08 8.25933e-10 0)
(-4.73282e-08 8.07376e-10 0)
(-4.81304e-08 7.88666e-10 0)
(-4.8907e-08 7.69818e-10 0)
(-4.96581e-08 7.50844e-10 0)
(-5.03839e-08 7.3176e-10 0)
(-5.10849e-08 7.12578e-10 0)
(-5.17612e-08 6.93309e-10 0)
(-5.24132e-08 6.73968e-10 0)
(-5.30411e-08 6.54565e-10 0)
(-5.36454e-08 6.35111e-10 0)
(-5.42262e-08 6.15619e-10 0)
(-5.47841e-08 5.96097e-10 0)
(-5.53192e-08 5.76558e-10 0)
(-5.58319e-08 5.5701e-10 0)
(-5.63227e-08 5.37462e-10 0)
(-5.67917e-08 5.17925e-10 0)
(-5.72395e-08 4.98407e-10 0)
(-5.76662e-08 4.78915e-10 0)
(-5.80724e-08 4.59459e-10 0)
(-5.84583e-08 4.40046e-10 0)
(-5.88244e-08 4.20684e-10 0)
(-5.91709e-08 4.01379e-10 0)
(-5.94983e-08 3.82138e-10 0)
(-5.98069e-08 3.62968e-10 0)
(-6.00971e-08 3.43875e-10 0)
(-6.03692e-08 3.24865e-10 0)
(-6.06236e-08 3.05944e-10 0)
(-6.08607e-08 2.87116e-10 0)
(-6.10808e-08 2.68387e-10 0)
(-6.12843e-08 2.49762e-10 0)
(-6.14715e-08 2.31246e-10 0)
(-6.16428e-08 2.12842e-10 0)
(-6.17985e-08 1.94555e-10 0)
(-6.19391e-08 1.76389e-10 0)
(-6.20648e-08 1.58347e-10 0)
(-6.2176e-08 1.40433e-10 0)
(-6.2273e-08 1.22649e-10 0)
(-6.23561e-08 1.05e-10 0)
(-6.24258e-08 8.74882e-11 0)
(-6.24822e-08 7.01155e-11 0)
(-6.25258e-08 5.28848e-11 0)
(-6.25569e-08 3.57984e-11 0)
(-6.25758e-08 1.88584e-11 0)
(-6.25827e-08 2.06674e-12 0)
(-8.82788e-10 3.74573e-09 0)
(-2.63999e-09 3.74292e-09 0)
(-4.37991e-09 3.73739e-09 0)
(-6.10146e-09 3.72919e-09 0)
(-7.80364e-09 3.71842e-09 0)
(-9.48549e-09 3.70515e-09 0)
(-1.11461e-08 3.68945e-09 0)
(-1.27848e-08 3.6714e-09 0)
(-1.44006e-08 3.65107e-09 0)
(-1.59929e-08 3.62855e-09 0)
(-1.75611e-08 3.60391e-09 0)
(-1.91046e-08 3.57723e-09 0)
(-2.06228e-08 3.54857e-09 0)
(-2.21152e-08 3.51801e-09 0)
(-2.35813e-08 3.48563e-09 0)
(-2.50209e-08 3.45149e-09 0)
(-2.64334e-08 3.41568e-09 0)
(-2.78187e-08 3.37825e-09 0)
(-2.91764e-08 3.33928e-09 0)
(-3.05063e-08 3.29884e-09 0)
(-3.18083e-08 3.25698e-09 0)
(-3.30821e-08 3.21379e-09 0)
(-3.43277e-08 3.16933e-09 0)
(-3.55449e-08 3.12365e-09 0)
(-3.67338e-08 3.07681e-09 0)
(-3.78942e-08 3.02889e-09 0)
(-3.90262e-08 2.97994e-09 0)
(-4.01299e-08 2.93002e-09 0)
(-4.12053e-08 2.87918e-09 0)
(-4.22524e-08 2.82749e-09 0)
(-4.32714e-08 2.77498e-09 0)
(-4.42624e-08 2.72173e-09 0)
(-4.52256e-08 2.66778e-09 0)
(-4.61611e-08 2.61317e-09 0)
(-4.70691e-08 2.55797e-09 0)
(-4.79499e-08 2.50221e-09 0)
(-4.88036e-08 2.44594e-09 0)
(-4.96305e-08 2.38921e-09 0)
(-5.04309e-08 2.33206e-09 0)
(-5.1205e-08 2.27453e-09 0)
(-5.19531e-08 2.21667e-09 0)
(-5.26755e-08 2.1585e-09 0)
(-5.33724e-08 2.10008e-09 0)
(-5.40443e-08 2.04144e-09 0)
(-5.46914e-08 1.98261e-09 0)
(-5.5314e-08 1.92363e-09 0)
(-5.59125e-08 1.86453e-09 0)
(-5.64873e-08 1.80534e-09 0)
(-5.70386e-08 1.7461e-09 0)
(-5.75668e-08 1.68684e-09 0)
(-5.80723e-08 1.62758e-09 0)
(-5.85555e-08 1.56834e-09 0)
(-5.90167e-08 1.50917e-09 0)
(-5.94562e-08 1.45008e-09 0)
(-5.98746e-08 1.3911e-09 0)
(-6.0272e-08 1.33225e-09 0)
(-6.06489e-08 1.27355e-09 0)
(-6.10057e-08 1.21502e-09 0)
(-6.13428e-08 1.15669e-09 0)
(-6.16605e-08 1.09858e-09 0)
(-6.19592e-08 1.0407e-09 0)
(-6.22393e-08 9.83076e-10 0)
(-6.25011e-08 9.25718e-10 0)
(-6.2745e-08 8.68645e-10 0)
(-6.29715e-08 8.11872e-10 0)
(-6.31808e-08 7.55415e-10 0)
(-6.33733e-08 6.99287e-10 0)
(-6.35495e-08 6.43501e-10 0)
(-6.37096e-08 5.88069e-10 0)
(-6.3854e-08 5.33005e-10 0)
(-6.39831e-08 4.78317e-10 0)
(-6.40973e-08 4.24017e-10 0)
(-6.41968e-08 3.70116e-10 0)
(-6.42821e-08 3.1662e-10 0)
(-6.43534e-08 2.63541e-10 0)
(-6.44112e-08 2.10884e-10 0)
(-6.44557e-08 1.58659e-10 0)
(-6.44873e-08 1.06871e-10 0)
(-6.45063e-08 5.5528e-11 0)
(-6.4513e-08 4.63472e-12 0)
(-9.37336e-10 6.37293e-09 0)
(-2.80312e-09 6.36815e-09 0)
(-4.65054e-09 6.35872e-09 0)
(-6.47845e-09 6.34477e-09 0)
(-8.28577e-09 6.32642e-09 0)
(-1.00715e-08 6.30381e-09 0)
(-1.18347e-08 6.27707e-09 0)
(-1.35745e-08 6.24633e-09 0)
(-1.52901e-08 6.21172e-09 0)
(-1.69806e-08 6.17336e-09 0)
(-1.86456e-08 6.1314e-09 0)
(-2.02842e-08 6.08595e-09 0)
(-2.1896e-08 6.03714e-09 0)
(-2.34803e-08 5.9851e-09 0)
(-2.50368e-08 5.92995e-09 0)
(-2.65649e-08 5.87182e-09 0)
(-2.80644e-08 5.81082e-09 0)
(-2.95349e-08 5.74709e-09 0)
(-3.0976e-08 5.68072e-09 0)
(-3.23877e-08 5.61185e-09 0)
(-3.37695e-08 5.54058e-09 0)
(-3.51215e-08 5.46703e-09 0)
(-3.64435e-08 5.39131e-09 0)
(-3.77353e-08 5.31352e-09 0)
(-3.89969e-08 5.23378e-09 0)
(-4.02284e-08 5.15218e-09 0)
(-4.14296e-08 5.06883e-09 0)
(-4.26007e-08 4.98383e-09 0)
(-4.37417e-08 4.89727e-09 0)
(-4.48527e-08 4.80925e-09 0)
(-4.59338e-08 4.71986e-09 0)
(-4.69851e-08 4.62919e-09 0)
(-4.80069e-08 4.53733e-09 0)
(-4.89992e-08 4.44436e-09 0)
(-4.99624e-08 4.35038e-09 0)
(-5.08966e-08 4.25545e-09 0)
(-5.1802e-08 4.15966e-09 0)
(-5.2679e-08 4.06308e-09 0)
(-5.35277e-08 3.96579e-09 0)
(-5.43485e-08 3.86785e-09 0)
(-5.51417e-08 3.76935e-09 0)
(-5.59076e-08 3.67035e-09 0)
(-5.66465e-08 3.5709e-09 0)
(-5.73587e-08 3.47108e-09 0)
(-5.80446e-08 3.37094e-09 0)
(-5.87045e-08 3.27055e-09 0)
(-5.93388e-08 3.16996e-09 0)
(-5.99478e-08 3.06922e-09 0)
(-6.0532e-08 2.9684e-09 0)
(-6.10916e-08 2.86753e-09 0)
(-6.16272e-08 2.76667e-09 0)
(-6.21389e-08 2.66586e-09 0)
(-6.26274e-08 2.56516e-09 0)
(-6.30929e-08 2.4646e-09 0)
(-6.35358e-08 2.36422e-09 0)
(-6.39566e-08 2.26407e-09 0)
(-6.43556e-08 2.16418e-09 0)
(-6.47332e-08 2.06459e-09 0)
(-6.50899e-08 1.96534e-09 0)
(-6.5426e-08 1.86645e-09 0)
(-6.57419e-08 1.76797e-09 0)
(-6.60381e-08 1.66991e-09 0)
(-6.63149e-08 1.57232e-09 0)
(-6.65728e-08 1.47521e-09 0)
(-6.6812e-08 1.37861e-09 0)
(-6.70331e-08 1.28256e-09 0)
(-6.72364e-08 1.18706e-09 0)
(-6.74223e-08 1.09215e-09 0)
(-6.75912e-08 9.97848e-10 0)
(-6.77435e-08 9.04168e-10 0)
(-6.78795e-08 8.11133e-10 0)
(-6.79996e-08 7.18759e-10 0)
(-6.81043e-08 6.27063e-10 0)
(-6.81938e-08 5.36061e-10 0)
(-6.82685e-08 4.45768e-10 0)
(-6.83288e-08 3.56196e-10 0)
(-6.83751e-08 2.6736e-10 0)
(-6.84077e-08 1.79269e-10 0)
(-6.84269e-08 9.1936e-11 0)
(-6.84332e-08 5.37015e-12 0)
(-1.02139e-09 9.2002e-09 0)
(-3.0545e-09 9.19329e-09 0)
(-5.06758e-09 9.17965e-09 0)
(-7.05938e-09 9.15948e-09 0)
(-9.02874e-09 9.13295e-09 0)
(-1.09745e-08 9.10026e-09 0)
(-1.28957e-08 9.0616e-09 0)
(-1.47914e-08 9.01715e-09 0)
(-1.66607e-08 8.96711e-09 0)
(-1.85026e-08 8.91166e-09 0)
(-2.03166e-08 8.85099e-09 0)
(-2.21019e-08 8.78527e-09 0)
(-2.38578e-08 8.71471e-09 0)
(-2.55838e-08 8.63947e-09 0)
(-2.72794e-08 8.55975e-09 0)
(-2.8944e-08 8.47571e-09 0)
(-3.05774e-08 8.38753e-09 0)
(-3.21791e-08 8.29539e-09 0)
(-3.37488e-08 8.19945e-09 0)
(-3.52862e-08 8.09989e-09 0)
(-3.67912e-08 7.99687e-09 0)
(-3.82635e-08 7.89056e-09 0)
(-3.97031e-08 7.7811e-09 0)
(-4.11098e-08 7.66867e-09 0)
(-4.24835e-08 7.55341e-09 0)
(-4.38242e-08 7.43547e-09 0)
(-4.5132e-08 7.315e-09 0)
(-4.64069e-08 7.19215e-09 0)
(-4.76489e-08 7.06705e-09 0)
(-4.88581e-08 6.93984e-09 0)
(-5.00348e-08 6.81065e-09 0)
(-5.1179e-08 6.67963e-09 0)
(-5.22909e-08 6.54688e-09 0)
(-5.33707e-08 6.41255e-09 0)
(-5.44186e-08 6.27673e-09 0)
(-5.5435e-08 6.13957e-09 0)
(-5.642e-08 6.00116e-09 0)
(-5.73739e-08 5.86162e-09 0)
(-5.8297e-08 5.72105e-09 0)
(-5.91896e-08 5.57956e-09 0)
(-6.00522e-08 5.43725e-09 0)
(-6.08849e-08 5.29422e-09 0)
(-6.16882e-08 5.15055e-09 0)
(-6.24624e-08 5.00635e-09 0)
(-6.32079e-08 4.8617e-09 0)
(-6.39251e-08 4.71669e-09 0)
(-6.46143e-08 4.57139e-09 0)
(-6.5276e-08 4.42589e-09 0)
(-6.59106e-08 4.28026e-09 0)
(-6.65185e-08 4.13457e-09 0)
(-6.71001e-08 3.9889e-09 0)
(-6.76558e-08 3.84332e-09 0)
(-6.81861e-08 3.69788e-09 0)
(-6.86913e-08 3.55266e-09 0)
(-6.9172e-08 3.40771e-09 0)
(-6.96285e-08 3.26308e-09 0)
(-7.00613e-08 3.11885e-09 0)
(-7.04709e-08 2.97505e-09 0)
(-7.08576e-08 2.83174e-09 0)
(-7.12219e-08 2.68896e-09 0)
(-7.15642e-08 2.54677e-09 0)
(-7.18851e-08 2.4052e-09 0)
(-7.21848e-08 2.26431e-09 0)
(-7.24639e-08 2.12412e-09 0)
(-7.27227e-08 1.98467e-09 0)
(-7.29618e-08 1.84601e-09 0)
(-7.31815e-08 1.70816e-09 0)
(-7.33823e-08 1.57116e-09 0)
(-7.35645e-08 1.43504e-09 0)
(-7.37287e-08 1.29982e-09 0)
(-7.38751e-08 1.16554e-09 0)
(-7.40043e-08 1.03222e-09 0)
(-7.41167e-08 8.99875e-10 0)
(-7.42125e-08 7.68541e-10 0)
(-7.42923e-08 6.38232e-10 0)
(-7.43565e-08 5.0897e-10 0)
(-7.44053e-08 3.80771e-10 0)
(-7.44393e-08 2.53654e-10 0)
(-7.44588e-08 1.27632e-10 0)
(-7.44641e-08 2.72158e-12 0)
(-1.13775e-09 1.23168e-08 0)
(-3.40244e-09 1.23075e-08 0)
(-5.64482e-09 1.22892e-08 0)
(-7.86348e-09 1.22621e-08 0)
(-1.00571e-08 1.22265e-08 0)
(-1.22244e-08 1.21827e-08 0)
(-1.43644e-08 1.21308e-08 0)
(-1.64758e-08 1.20712e-08 0)
(-1.85577e-08 1.2004e-08 0)
(-2.06092e-08 1.19297e-08 0)
(-2.26294e-08 1.18483e-08 0)
(-2.46176e-08 1.17601e-08 0)
(-2.6573e-08 1.16655e-08 0)
(-2.8495e-08 1.15645e-08 0)
(-3.0383e-08 1.14576e-08 0)
(-3.22365e-08 1.13449e-08 0)
(-3.40551e-08 1.12266e-08 0)
(-3.58383e-08 1.1103e-08 0)
(-3.75858e-08 1.09743e-08 0)
(-3.92972e-08 1.08408e-08 0)
(-4.09724e-08 1.07027e-08 0)
(-4.26112e-08 1.05601e-08 0)
(-4.42133e-08 1.04133e-08 0)
(-4.57787e-08 1.02625e-08 0)
(-4.73074e-08 1.0108e-08 0)
(-4.87992e-08 9.94981e-09 0)
(-5.02542e-08 9.78827e-09 0)
(-5.16725e-08 9.62355e-09 0)
(-5.30541e-08 9.45582e-09 0)
(-5.43992e-08 9.28527e-09 0)
(-5.57078e-08 9.11208e-09 0)
(-5.69802e-08 8.93642e-09 0)
(-5.82166e-08 8.75847e-09 0)
(-5.94172e-08 8.57839e-09 0)
(-6.05822e-08 8.39634e-09 0)
(-6.1712e-08 8.21248e-09 0)
(-6.28067e-08 8.02696e-09 0)
(-6.38668e-08 7.83994e-09 0)
(-6.48926e-08 7.65154e-09 0)
(-6.58843e-08 7.46193e-09 0)
(-6.68425e-08 7.27122e-09 0)
(-6.77674e-08 7.07954e-09 0)
(-6.86595e-08 6.88704e-09 0)
(-6.95192e-08 6.69382e-09 0)
(-7.03469e-08 6.5e-09 0)
(-7.11429e-08 6.30571e-09 0)
(-7.19079e-08 6.11104e-09 0)
(-7.26422e-08 5.91611e-09 0)
(-7.33462e-08 5.72102e-09 0)
(-7.40204e-08 5.52586e-09 0)
(-7.46654e-08 5.33074e-09 0)
(-7.52815e-08 5.13573e-09 0)
(-7.58693e-08 4.94093e-09 0)
(-7.64293e-08 4.74643e-09 0)
(-7.69618e-08 4.5523e-09 0)
(-7.74675e-08 4.35862e-09 0)
(-7.79467e-08 4.16546e-09 0)
(-7.84e-08 3.9729e-09 0)
(-7.88279e-08 3.781e-09 0)
(-7.92309e-08 3.58983e-09 0)
(-7.96094e-08 3.39944e-09 0)
(-7.9964e-08 3.20991e-09 0)
(-8.02951e-08 3.02127e-09 0)
(-8.06032e-08 2.83359e-09 0)
(-8.08888e-08 2.64692e-09 0)
(-8.11524e-08 2.4613e-09 0)
(-8.13945e-08 2.27678e-09 0)
(-8.16155e-08 2.09341e-09 0)
(-8.18159e-08 1.91121e-09 0)
(-8.19962e-08 1.73024e-09 0)
(-8.21568e-08 1.55052e-09 0)
(-8.22982e-08 1.3721e-09 0)
(-8.24209e-08 1.195e-09 0)
(-8.25252e-08 1.01925e-09 0)
(-8.26118e-08 8.44882e-10 0)
(-8.26809e-08 6.71921e-10 0)
(-8.2733e-08 5.0039e-10 0)
(-8.27686e-08 3.30312e-10 0)
(-8.27881e-08 1.61708e-10 0)
(-8.27919e-08 -5.40319e-12 0)
(-1.29026e-09 1.58214e-08 0)
(-3.85854e-09 1.58094e-08 0)
(-6.4015e-09 1.57859e-08 0)
(-8.91752e-09 1.5751e-08 0)
(-1.14051e-08 1.57052e-08 0)
(-1.38628e-08 1.56487e-08 0)
(-1.62894e-08 1.55819e-08 0)
(-1.86836e-08 1.55051e-08 0)
(-2.10442e-08 1.54186e-08 0)
(-2.33702e-08 1.53228e-08 0)
(-2.56607e-08 1.5218e-08 0)
(-2.79148e-08 1.51045e-08 0)
(-3.01316e-08 1.49825e-08 0)
(-3.23104e-08 1.48526e-08 0)
(-3.44505e-08 1.47149e-08 0)
(-3.65514e-08 1.45697e-08 0)
(-3.86126e-08 1.44174e-08 0)
(-4.06335e-08 1.42583e-08 0)
(-4.26137e-08 1.40926e-08 0)
(-4.45531e-08 1.39207e-08 0)
(-4.64511e-08 1.37428e-08 0)
(-4.83077e-08 1.35592e-08 0)
(-5.01227e-08 1.33702e-08 0)
(-5.18959e-08 1.31761e-08 0)
(-5.36273e-08 1.29772e-08 0)
(-5.53168e-08 1.27736e-08 0)
(-5.69644e-08 1.25657e-08 0)
(-5.85703e-08 1.23536e-08 0)
(-6.01345e-08 1.21378e-08 0)
(-6.16571e-08 1.19183e-08 0)
(-6.31383e-08 1.16954e-08 0)
(-6.45783e-08 1.14693e-08 0)
(-6.59774e-08 1.12404e-08 0)
(-6.73358e-08 1.10086e-08 0)
(-6.86537e-08 1.07744e-08 0)
(-6.99316e-08 1.05378e-08 0)
(-7.11697e-08 1.02992e-08 0)
(-7.23684e-08 1.00586e-08 0)
(-7.35281e-08 9.81623e-09 0)
(-7.46493e-08 9.57233e-09 0)
(-7.57322e-08 9.32703e-09 0)
(-7.67774e-08 9.0805e-09 0)
(-7.77853e-08 8.83292e-09 0)
(-7.87563e-08 8.58444e-09 0)
(-7.96911e-08 8.3352e-09 0)
(-8.059e-08 8.08537e-09 0)
(-8.14535e-08 7.83507e-09 0)
(-8.22823e-08 7.58444e-09 0)
(-8.30767e-08 7.33362e-09 0)
(-8.38373e-08 7.08273e-09 0)
(-8.45647e-08 6.8319e-09 0)
(-8.52594e-08 6.58123e-09 0)
(-8.59219e-08 6.33085e-09 0)
(-8.65529e-08 6.08086e-09 0)
(-8.71528e-08 5.83137e-09 0)
(-8.77222e-08 5.58246e-09 0)
(-8.82616e-08 5.33425e-09 0)
(-8.87717e-08 5.08681e-09 0)
(-8.9253e-08 4.84024e-09 0)
(-8.9706e-08 4.59462e-09 0)
(-9.01313e-08 4.35002e-09 0)
(-9.05295e-08 4.10653e-09 0)
(-9.09011e-08 3.86421e-09 0)
(-9.12466e-08 3.62313e-09 0)
(-9.15667e-08 3.38336e-09 0)
(-9.18619e-08 3.14495e-09 0)
(-9.21326e-08 2.90797e-09 0)
(-9.23796e-08 2.67247e-09 0)
(-9.26032e-08 2.43851e-09 0)
(-9.2804e-08 2.20612e-09 0)
(-9.29826e-08 1.97536e-09 0)
(-9.31395e-08 1.74628e-09 0)
(-9.32752e-08 1.5189e-09 0)
(-9.33902e-08 1.29327e-09 0)
(-9.3485e-08 1.06943e-09 0)
(-9.35601e-08 8.474e-10 0)
(-9.3616e-08 6.27222e-10 0)
(-9.36532e-08 4.08921e-10 0)
(-9.36722e-08 1.92522e-10 0)
(-9.36735e-08 -2.19491e-11 0)
(-1.48407e-09 1.98259e-08 0)
(-4.43813e-09 1.98109e-08 0)
(-7.36302e-09 1.97813e-08 0)
(-1.02569e-08 1.97374e-08 0)
(-1.3118e-08 1.96798e-08 0)
(-1.59447e-08 1.96088e-08 0)
(-1.87355e-08 1.95248e-08 0)
(-2.14889e-08 1.94282e-08 0)
(-2.42036e-08 1.93195e-08 0)
(-2.68784e-08 1.9199e-08 0)
(-2.95122e-08 1.90672e-08 0)
(-3.21039e-08 1.89245e-08 0)
(-3.46526e-08 1.87712e-08 0)
(-3.71575e-08 1.86079e-08 0)
(-3.96178e-08 1.84347e-08 0)
(-4.20328e-08 1.82522e-08 0)
(-4.44018e-08 1.80608e-08 0)
(-4.67245e-08 1.78608e-08 0)
(-4.90002e-08 1.76525e-08 0)
(-5.12286e-08 1.74365e-08 0)
(-5.34095e-08 1.72129e-08 0)
(-5.55424e-08 1.69822e-08 0)
(-5.76274e-08 1.67447e-08 0)
(-5.96641e-08 1.65008e-08 0)
(-6.16525e-08 1.62508e-08 0)
(-6.35926e-08 1.59951e-08 0)
(-6.54844e-08 1.57339e-08 0)
(-6.7328e-08 1.54675e-08 0)
(-6.91234e-08 1.51963e-08 0)
(-7.0871e-08 1.49206e-08 0)
(-7.25707e-08 1.46406e-08 0)
(-7.4223e-08 1.43567e-08 0)
(-7.5828e-08 1.40692e-08 0)
(-7.7386e-08 1.37782e-08 0)
(-7.88975e-08 1.3484e-08 0)
(-8.03627e-08 1.3187e-08 0)
(-8.17821e-08 1.28874e-08 0)
(-8.31561e-08 1.25853e-08 0)
(-8.44851e-08 1.22811e-08 0)
(-8.57696e-08 1.19749e-08 0)
(-8.70101e-08 1.1667e-08 0)
(-8.82072e-08 1.13576e-08 0)
(-8.93612e-08 1.10469e-08 0)
(-9.04729e-08 1.07351e-08 0)
(-9.15427e-08 1.04223e-08 0)
(-9.25712e-08 1.01088e-08 0)
(-9.3559e-08 9.79479e-09 0)
(-9.45068e-08 9.48037e-09 0)
(-9.5415e-08 9.16572e-09 0)
(-9.62843e-08 8.85102e-09 0)
(-9.71154e-08 8.5364e-09 0)
(-9.79089e-08 8.22202e-09 0)
(-9.86654e-08 7.90802e-09 0)
(-9.93855e-08 7.59454e-09 0)
(-1.0007e-07 7.28169e-09 0)
(-1.00719e-07 6.96962e-09 0)
(-1.01334e-07 6.65842e-09 0)
(-1.01915e-07 6.34823e-09 0)
(-1.02463e-07 6.03914e-09 0)
(-1.02979e-07 5.73127e-09 0)
(-1.03463e-07 5.4247e-09 0)
(-1.03915e-07 5.11954e-09 0)
(-1.04337e-07 4.81587e-09 0)
(-1.04729e-07 4.51378e-09 0)
(-1.05092e-07 4.21335e-09 0)
(-1.05427e-07 3.91465e-09 0)
(-1.05733e-07 3.61776e-09 0)
(-1.06012e-07 3.32274e-09 0)
(-1.06264e-07 3.02967e-09 0)
(-1.0649e-07 2.73859e-09 0)
(-1.06691e-07 2.44958e-09 0)
(-1.06866e-07 2.16267e-09 0)
(-1.07017e-07 1.87793e-09 0)
(-1.07145e-07 1.5954e-09 0)
(-1.07249e-07 1.31512e-09 0)
(-1.07331e-07 1.03714e-09 0)
(-1.07391e-07 7.61484e-10 0)
(-1.0743e-07 4.882e-10 0)
(-1.07447e-07 2.17316e-10 0)
(-1.07445e-07 -5.11374e-11 0)
(-1.72576e-09 2.44591e-08 0)
(-5.16087e-09 2.44405e-08 0)
(-8.56204e-09 2.44037e-08 0)
(-1.19271e-08 2.43494e-08 0)
(-1.52539e-08 2.4278e-08 0)
(-1.85407e-08 2.419e-08 0)
(-2.17855e-08 2.4086e-08 0)
(-2.49868e-08 2.39663e-08 0)
(-2.81429e-08 2.38316e-08 0)
(-3.12524e-08 2.36824e-08 0)
(-3.43141e-08 2.35192e-08 0)
(-3.73267e-08 2.33424e-08 0)
(-4.0289e-08 2.31525e-08 0)
(-4.32002e-08 2.29502e-08 0)
(-4.60593e-08 2.27357e-08 0)
(-4.88655e-08 2.25097e-08 0)
(-5.16181e-08 2.22727e-08 0)
(-5.43164e-08 2.2025e-08 0)
(-5.696e-08 2.17671e-08 0)
(-5.95483e-08 2.14996e-08 0)
(-6.20811e-08 2.12228e-08 0)
(-6.4558e-08 2.09372e-08 0)
(-6.69787e-08 2.06432e-08 0)
(-6.93432e-08 2.03413e-08 0)
(-7.16512e-08 2.00318e-08 0)
(-7.39029e-08 1.97153e-08 0)
(-7.60982e-08 1.9392e-08 0)
(-7.82372e-08 1.90623e-08 0)
(-8.032e-08 1.87268e-08 0)
(-8.23469e-08 1.83856e-08 0)
(-8.4318e-08 1.80392e-08 0)
(-8.62337e-08 1.7688e-08 0)
(-8.80943e-08 1.73323e-08 0)
(-8.99001e-08 1.69723e-08 0)
(-9.16515e-08 1.66085e-08 0)
(-9.33491e-08 1.62412e-08 0)
(-9.49932e-08 1.58706e-08 0)
(-9.65843e-08 1.54971e-08 0)
(-9.8123e-08 1.5121e-08 0)
(-9.96098e-08 1.47424e-08 0)
(-1.01045e-07 1.43618e-08 0)
(-1.0243e-07 1.39794e-08 0)
(-1.03765e-07 1.35953e-08 0)
(-1.05051e-07 1.32099e-08 0)
(-1.06287e-07 1.28234e-08 0)
(-1.07476e-07 1.24361e-08 0)
(-1.08617e-07 1.20481e-08 0)
(-1.09712e-07 1.16596e-08 0)
(-1.1076e-07 1.12709e-08 0)
(-1.11763e-07 1.08822e-08 0)
(-1.12722e-07 1.04936e-08 0)
(-1.13637e-07 1.01054e-08 0)
(-1.14509e-07 9.71762e-09 0)
(-1.15339e-07 9.33054e-09 0)
(-1.16127e-07 8.94428e-09 0)
(-1.16875e-07 8.55901e-09 0)
(-1.17582e-07 8.17486e-09 0)
(-1.1825e-07 7.79198e-09 0)
(-1.1888e-07 7.41051e-09 0)
(-1.19472e-07 7.03056e-09 0)
(-1.20027e-07 6.65226e-09 0)
(-1.20546e-07 6.27573e-09 0)
(-1.21029e-07 5.90108e-09 0)
(-1.21478e-07 5.5284e-09 0)
(-1.21892e-07 5.1578e-09 0)
(-1.22274e-07 4.78938e-09 0)
(-1.22623e-07 4.42321e-09 0)
(-1.2294e-07 4.05939e-09 0)
(-1.23227e-07 3.698e-09 0)
(-1.23483e-07 3.3391e-09 0)
(-1.23709e-07 2.98278e-09 0)
(-1.23907e-07 2.62909e-09 0)
(-1.24076e-07 2.27809e-09 0)
(-1.24218e-07 1.92985e-09 0)
(-1.24333e-07 1.58441e-09 0)
(-1.24422e-07 1.24183e-09 0)
(-1.24486e-07 9.02152e-10 0)
(-1.24525e-07 5.6542e-10 0)
(-1.24539e-07 2.31673e-10 0)
(-1.2453e-07 -9.90531e-11 0)
(-2.02364e-09 2.9871e-08 0)
(-6.05166e-09 2.98482e-08 0)
(-1.00398e-08 2.98031e-08 0)
(-1.39855e-08 2.97364e-08 0)
(-1.78864e-08 2.96488e-08 0)
(-2.174e-08 2.95407e-08 0)
(-2.55444e-08 2.9413e-08 0)
(-2.92974e-08 2.92662e-08 0)
(-3.29974e-08 2.91009e-08 0)
(-3.66425e-08 2.89177e-08 0)
(-4.02312e-08 2.87173e-08 0)
(-4.37621e-08 2.85003e-08 0)
(-4.72338e-08 2.82674e-08 0)
(-5.06452e-08 2.8019e-08 0)
(-5.39952e-08 2.77559e-08 0)
(-5.72829e-08 2.74786e-08 0)
(-6.05075e-08 2.71877e-08 0)
(-6.36681e-08 2.68839e-08 0)
(-6.67641e-08 2.65675e-08 0)
(-6.97951e-08 2.62393e-08 0)
(-7.27606e-08 2.58998e-08 0)
(-7.56602e-08 2.55495e-08 0)
(-7.84937e-08 2.5189e-08 0)
(-8.12609e-08 2.48188e-08 0)
(-8.39616e-08 2.44393e-08 0)
(-8.65959e-08 2.40512e-08 0)
(-8.91638e-08 2.36548e-08 0)
(-9.16653e-08 2.32507e-08 0)
(-9.41007e-08 2.28394e-08 0)
(-9.64702e-08 2.24213e-08 0)
(-9.87741e-08 2.19968e-08 0)
(-1.01013e-07 2.15664e-08 0)
(-1.03186e-07 2.11305e-08 0)
(-1.05296e-07 2.06895e-08 0)
(-1.07341e-07 2.02438e-08 0)
(-1.09323e-07 1.97938e-08 0)
(-1.11242e-07 1.934e-08 0)
(-1.13098e-07 1.88825e-08 0)
(-1.14893e-07 1.84219e-08 0)
(-1.16628e-07 1.79584e-08 0)
(-1.18301e-07 1.74924e-08 0)
(-1.19915e-07 1.70242e-08 0)
(-1.21471e-07 1.65541e-08 0)
(-1.22968e-07 1.60825e-08 0)
(-1.24408e-07 1.56095e-08 0)
(-1.25792e-07 1.51355e-08 0)
(-1.27119e-07 1.46608e-08 0)
(-1.28392e-07 1.41856e-08 0)
(-1.29612e-07 1.37101e-08 0)
(-1.30778e-07 1.32347e-08 0)
(-1.31891e-07 1.27594e-08 0)
(-1.32954e-07 1.22847e-08 0)
(-1.33966e-07 1.18106e-08 0)
(-1.34928e-07 1.13373e-08 0)
(-1.35842e-07 1.08652e-08 0)
(-1.36708e-07 1.03942e-08 0)
(-1.37527e-07 9.92476e-09 0)
(-1.383e-07 9.45688e-09 0)
(-1.39028e-07 8.99076e-09 0)
(-1.39711e-07 8.52656e-09 0)
(-1.40352e-07 8.06442e-09 0)
(-1.4095e-07 7.60449e-09 0)
(-1.41507e-07 7.14691e-09 0)
(-1.42023e-07 6.69179e-09 0)
(-1.42499e-07 6.23926e-09 0)
(-1.42936e-07 5.78943e-09 0)
(-1.43336e-07 5.34241e-09 0)
(-1.43698e-07 4.8983e-09 0)
(-1.44025e-07 4.4572e-09 0)
(-1.44315e-07 4.01919e-09 0)
(-1.44572e-07 3.58437e-09 0)
(-1.44794e-07 3.1528e-09 0)
(-1.44984e-07 2.72457e-09 0)
(-1.45141e-07 2.29974e-09 0)
(-1.45268e-07 1.87838e-09 0)
(-1.45364e-07 1.46055e-09 0)
(-1.4543e-07 1.0463e-09 0)
(-1.45467e-07 6.35678e-10 0)
(-1.45476e-07 2.28741e-10 0)
(-1.45458e-07 -1.74473e-10 0)
(-2.38813e-09 3.62391e-08 0)
(-7.14165e-09 3.62112e-08 0)
(-1.18481e-08 3.61562e-08 0)
(-1.65043e-08 3.60748e-08 0)
(-2.11074e-08 3.59677e-08 0)
(-2.56546e-08 3.58359e-08 0)
(-3.01434e-08 3.568e-08 0)
(-3.45714e-08 3.55007e-08 0)
(-3.89364e-08 3.5299e-08 0)
(-4.32365e-08 3.50754e-08 0)
(-4.74696e-08 3.48309e-08 0)
(-5.16341e-08 3.45661e-08 0)
(-5.57284e-08 3.42818e-08 0)
(-5.97512e-08 3.39788e-08 0)
(-6.37011e-08 3.36577e-08 0)
(-6.7577e-08 3.33194e-08 0)
(-7.13779e-08 3.29645e-08 0)
(-7.5103e-08 3.25938e-08 0)
(-7.87515e-08 3.2208e-08 0)
(-8.23227e-08 3.18077e-08 0)
(-8.58161e-08 3.13936e-08 0)
(-8.92314e-08 3.09665e-08 0)
(-9.25682e-08 3.05269e-08 0)
(-9.58263e-08 3.00755e-08 0)
(-9.90056e-08 2.96129e-08 0)
(-1.02106e-07 2.91398e-08 0)
(-1.05128e-07 2.86567e-08 0)
(-1.08071e-07 2.81642e-08 0)
(-1.10935e-07 2.7663e-08 0)
(-1.13721e-07 2.71535e-08 0)
(-1.1643e-07 2.66364e-08 0)
(-1.19061e-07 2.61121e-08 0)
(-1.21615e-07 2.55811e-08 0)
(-1.24093e-07 2.50441e-08 0)
(-1.26495e-07 2.45013e-08 0)
(-1.28822e-07 2.39535e-08 0)
(-1.31074e-07 2.34009e-08 0)
(-1.33252e-07 2.28441e-08 0)
(-1.35358e-07 2.22835e-08 0)
(-1.37391e-07 2.17194e-08 0)
(-1.39353e-07 2.11524e-08 0)
(-1.41244e-07 2.05827e-08 0)
(-1.43066e-07 2.00109e-08 0)
(-1.44819e-07 1.94372e-08 0)
(-1.46505e-07 1.8862e-08 0)
(-1.48123e-07 1.82856e-08 0)
(-1.49676e-07 1.77084e-08 0)
(-1.51164e-07 1.71306e-08 0)
(-1.52588e-07 1.65527e-08 0)
(-1.5395e-07 1.59748e-08 0)
(-1.5525e-07 1.53973e-08 0)
(-1.56489e-07 1.48205e-08 0)
(-1.57668e-07 1.42445e-08 0)
(-1.58789e-07 1.36696e-08 0)
(-1.59853e-07 1.30962e-08 0)
(-1.6086e-07 1.25243e-08 0)
(-1.61812e-07 1.19542e-08 0)
(-1.6271e-07 1.13861e-08 0)
(-1.63555e-07 1.08203e-08 0)
(-1.64347e-07 1.02569e-08 0)
(-1.65089e-07 9.69604e-09 0)
(-1.6578e-07 9.13795e-09 0)
(-1.66423e-07 8.58277e-09 0)
(-1.67018e-07 8.03066e-09 0)
(-1.67566e-07 7.48176e-09 0)
(-1.68069e-07 6.9362e-09 0)
(-1.68527e-07 6.39413e-09 0)
(-1.68941e-07 5.85565e-09 0)
(-1.69313e-07 5.32089e-09 0)
(-1.69643e-07 4.78995e-09 0)
(-1.69933e-07 4.26293e-09 0)
(-1.70183e-07 3.73993e-09 0)
(-1.70394e-07 3.22104e-09 0)
(-1.70568e-07 2.70633e-09 0)
(-1.70705e-07 2.19589e-09 0)
(-1.70806e-07 1.68979e-09 0)
(-1.70873e-07 1.18809e-09 0)
(-1.70906e-07 6.90846e-10 0)
(-1.70905e-07 1.98122e-10 0)
(-1.70873e-07 -2.90036e-10 0)
(-2.83224e-09 4.37743e-08 0)
(-8.46972e-09 4.37403e-08 0)
(-1.40512e-08 4.36734e-08 0)
(-1.95731e-08 4.35743e-08 0)
(-2.50316e-08 4.34441e-08 0)
(-3.04237e-08 4.32836e-08 0)
(-3.57462e-08 4.30939e-08 0)
(-4.09962e-08 4.28758e-08 0)
(-4.61712e-08 4.26303e-08 0)
(-5.12686e-08 4.23584e-08 0)
(-5.62861e-08 4.20609e-08 0)
(-6.12218e-08 4.17387e-08 0)
(-6.60738e-08 4.13929e-08 0)
(-7.08403e-08 4.10244e-08 0)
(-7.55199e-08 4.06339e-08 0)
(-8.01111e-08 4.02225e-08 0)
(-8.46128e-08 3.9791e-08 0)
(-8.90239e-08 3.93403e-08 0)
(-9.33435e-08 3.88712e-08 0)
(-9.75709e-08 3.83846e-08 0)
(-1.01705e-07 3.78813e-08 0)
(-1.05747e-07 3.73621e-08 0)
(-1.09694e-07 3.68279e-08 0)
(-1.13548e-07 3.62794e-08 0)
(-1.17307e-07 3.57174e-08 0)
(-1.20973e-07 3.51426e-08 0)
(-1.24544e-07 3.45558e-08 0)
(-1.28021e-07 3.39577e-08 0)
(-1.31405e-07 3.3349e-08 0)
(-1.34696e-07 3.27305e-08 0)
(-1.37894e-07 3.21026e-08 0)
(-1.40999e-07 3.14662e-08 0)
(-1.44013e-07 3.08218e-08 0)
(-1.46936e-07 3.01701e-08 0)
(-1.49768e-07 2.95116e-08 0)
(-1.52511e-07 2.88469e-08 0)
(-1.55165e-07 2.81767e-08 0)
(-1.57731e-07 2.75014e-08 0)
(-1.6021e-07 2.68215e-08 0)
(-1.62603e-07 2.61377e-08 0)
(-1.64912e-07 2.54503e-08 0)
(-1.67136e-07 2.47598e-08 0)
(-1.69277e-07 2.40668e-08 0)
(-1.71337e-07 2.33716e-08 0)
(-1.73317e-07 2.26748e-08 0)
(-1.75217e-07 2.19766e-08 0)
(-1.77038e-07 2.12775e-08 0)
(-1.78783e-07 2.05779e-08 0)
(-1.80452e-07 1.98782e-08 0)
(-1.82047e-07 1.91787e-08 0)
(-1.83568e-07 1.84797e-08 0)
(-1.85017e-07 1.77816e-08 0)
(-1.86396e-07 1.70847e-08 0)
(-1.87705e-07 1.63892e-08 0)
(-1.88946e-07 1.56955e-08 0)
(-1.9012e-07 1.50039e-08 0)
(-1.91229e-07 1.43146e-08 0)
(-1.92274e-07 1.36278e-08 0)
(-1.93255e-07 1.29438e-08 0)
(-1.94175e-07 1.22629e-08 0)
(-1.95035e-07 1.15851e-08 0)
(-1.95836e-07 1.09108e-08 0)
(-1.96579e-07 1.02402e-08 0)
(-1.97265e-07 9.57329e-09 0)
(-1.97896e-07 8.91041e-09 0)
(-1.98473e-07 8.25167e-09 0)
(-1.98997e-07 7.59724e-09 0)
(-1.9947e-07 6.94725e-09 0)
(-1.99893e-07 6.30184e-09 0)
(-2.00266e-07 5.66115e-09 0)
(-2.00592e-07 5.02529e-09 0)
(-2.00871e-07 4.39437e-09 0)
(-2.01105e-07 3.7685e-09 0)
(-2.01294e-07 3.14778e-09 0)
(-2.01439e-07 2.53229e-09 0)
(-2.01543e-07 1.92213e-09 0)
(-2.01606e-07 1.31736e-09 0)
(-2.01629e-07 7.18052e-10 0)
(-2.01613e-07 1.24278e-10 0)
(-2.0156e-07 -4.63906e-10 0)
(-3.37216e-09 5.27298e-08 0)
(-1.00843e-08 5.26886e-08 0)
(-1.67296e-08 5.26072e-08 0)
(-2.33037e-08 5.24868e-08 0)
(-2.98022e-08 5.23286e-08 0)
(-3.62211e-08 5.21336e-08 0)
(-4.25567e-08 5.19031e-08 0)
(-4.88056e-08 5.16381e-08 0)
(-5.49644e-08 5.13398e-08 0)
(-6.10304e-08 5.10094e-08 0)
(-6.70006e-08 5.0648e-08 0)
(-7.28727e-08 5.02568e-08 0)
(-7.86443e-08 4.98367e-08 0)
(-8.43134e-08 4.93891e-08 0)
(-8.98782e-08 4.8915e-08 0)
(-9.5337e-08 4.84154e-08 0)
(-1.00688e-07 4.78915e-08 0)
(-1.05931e-07 4.73443e-08 0)
(-1.11064e-07 4.67749e-08 0)
(-1.16086e-07 4.61843e-08 0)
(-1.20997e-07 4.55735e-08 0)
(-1.25796e-07 4.49435e-08 0)
(-1.30482e-07 4.42954e-08 0)
(-1.35056e-07 4.363e-08 0)
(-1.39517e-07 4.29483e-08 0)
(-1.43864e-07 4.22513e-08 0)
(-1.481e-07 4.15398e-08 0)
(-1.52222e-07 4.08147e-08 0)
(-1.56232e-07 4.00768e-08 0)
(-1.60131e-07 3.93271e-08 0)
(-1.63918e-07 3.85663e-08 0)
(-1.67595e-07 3.77952e-08 0)
(-1.71162e-07 3.70146e-08 0)
(-1.7462e-07 3.62252e-08 0)
(-1.77969e-07 3.54278e-08 0)
(-1.81212e-07 3.4623e-08 0)
(-1.84348e-07 3.38116e-08 0)
(-1.87379e-07 3.29942e-08 0)
(-1.90306e-07 3.21715e-08 0)
(-1.9313e-07 3.13441e-08 0)
(-1.95852e-07 3.05125e-08 0)
(-1.98475e-07 2.96775e-08 0)
(-2.00998e-07 2.88394e-08 0)
(-2.03424e-07 2.79989e-08 0)
(-2.05753e-07 2.71565e-08 0)
(-2.07988e-07 2.63127e-08 0)
(-2.10129e-07 2.5468e-08 0)
(-2.12179e-07 2.46227e-08 0)
(-2.14138e-07 2.37775e-08 0)
(-2.16008e-07 2.29327e-08 0)
(-2.17791e-07 2.20887e-08 0)
(-2.19489e-07 2.12459e-08 0)
(-2.21102e-07 2.04048e-08 0)
(-2.22632e-07 1.95655e-08 0)
(-2.24082e-07 1.87286e-08 0)
(-2.25452e-07 1.78943e-08 0)
(-2.26744e-07 1.70629e-08 0)
(-2.27959e-07 1.62347e-08 0)
(-2.291e-07 1.54101e-08 0)
(-2.30168e-07 1.45893e-08 0)
(-2.31164e-07 1.37725e-08 0)
(-2.3209e-07 1.296e-08 0)
(-2.32947e-07 1.21521e-08 0)
(-2.33737e-07 1.13488e-08 0)
(-2.34462e-07 1.05506e-08 0)
(-2.35122e-07 9.75742e-09 0)
(-2.35721e-07 8.96962e-09 0)
(-2.36258e-07 8.18731e-09 0)
(-2.36736e-07 7.41066e-09 0)
(-2.37155e-07 6.63983e-09 0)
(-2.37518e-07 5.87495e-09 0)
(-2.37826e-07 5.11616e-09 0)
(-2.3808e-07 4.36357e-09 0)
(-2.38281e-07 3.61731e-09 0)
(-2.38432e-07 2.87748e-09 0)
(-2.38533e-07 2.14417e-09 0)
(-2.38585e-07 1.41748e-09 0)
(-2.3859e-07 6.9748e-10 0)
(-2.3855e-07 -1.57457e-11 0)
(-2.38465e-07 -7.22135e-10 0)
(-4.02809e-09 6.34115e-08 0)
(-1.20457e-08 6.33614e-08 0)
(-1.99835e-08 6.32625e-08 0)
(-2.78357e-08 6.31162e-08 0)
(-3.55972e-08 6.2924e-08 0)
(-4.32632e-08 6.26871e-08 0)
(-5.08291e-08 6.2407e-08 0)
(-5.82906e-08 6.2085e-08 0)
(-6.56439e-08 6.17227e-08 0)
(-7.28853e-08 6.13214e-08 0)
(-8.00114e-08 6.08824e-08 0)
(-8.70193e-08 6.04072e-08 0)
(-9.39062e-08 5.98971e-08 0)
(-1.0067e-07 5.93536e-08 0)
(-1.07307e-07 5.87779e-08 0)
(-1.13817e-07 5.81714e-08 0)
(-1.20197e-07 5.75355e-08 0)
(-1.26447e-07 5.68714e-08 0)
(-1.32564e-07 5.61804e-08 0)
(-1.38547e-07 5.54638e-08 0)
(-1.44397e-07 5.47228e-08 0)
(-1.50111e-07 5.39587e-08 0)
(-1.5569e-07 5.31726e-08 0)
(-1.61133e-07 5.23657e-08 0)
(-1.6644e-07 5.15393e-08 0)
(-1.71611e-07 5.06943e-08 0)
(-1.76646e-07 4.9832e-08 0)
(-1.81546e-07 4.89533e-08 0)
(-1.8631e-07 4.80594e-08 0)
(-1.9094e-07 4.71512e-08 0)
(-1.95436e-07 4.62298e-08 0)
(-1.99799e-07 4.52961e-08 0)
(-2.04029e-07 4.4351e-08 0)
(-2.08129e-07 4.33955e-08 0)
(-2.12098e-07 4.24305e-08 0)
(-2.15939e-07 4.14569e-08 0)
(-2.19651e-07 4.04753e-08 0)
(-2.23238e-07 3.94868e-08 0)
(-2.26699e-07 3.8492e-08 0)
(-2.30037e-07 3.74917e-08 0)
(-2.33253e-07 3.64867e-08 0)
(-2.36349e-07 3.54776e-08 0)
(-2.39326e-07 3.44651e-08 0)
(-2.42186e-07 3.34499e-08 0)
(-2.44931e-07 3.24326e-08 0)
(-2.47562e-07 3.14139e-08 0)
(-2.50081e-07 3.03942e-08 0)
(-2.52491e-07 2.93742e-08 0)
(-2.54792e-07 2.83545e-08 0)
(-2.56987e-07 2.73354e-08 0)
(-2.59078e-07 2.63176e-08 0)
(-2.61066e-07 2.53014e-08 0)
(-2.62953e-07 2.42874e-08 0)
(-2.64742e-07 2.3276e-08 0)
(-2.66433e-07 2.22676e-08 0)
(-2.6803e-07 2.12626e-08 0)
(-2.69534e-07 2.02613e-08 0)