/*--------------------------------*- C++ -*----------------------------------*\
  =========                 |
  \\      /  F ield         | OpenFOAM: The Open Source CFD Toolbox
   \\    /   O peration     | Website:  https://openfoam.org
    \\  /    A nd           | Version:  8
     \\/     M anipulation  |
\*---------------------------------------------------------------------------*/
FoamFile
{
    version     2.0;
    format      ascii;
    class       volVectorField;
    location    "2000";
    object      Ub;
}
// * * * * * * * * * * * * * * * * * * * * * * * * * * * * * * * * * * * * * //

dimensions      [0 1 -1 0 0 0 0];

internalField   nonuniform List<vector> 
12800
(
(-1.52026e-20 -4.92985e-13 0)
(-4.54638e-20 -4.92985e-13 0)
(-7.54273e-20 -4.92985e-13 0)
(-1.05075e-19 -4.92985e-13 0)
(-1.34388e-19 -4.92985e-13 0)
(-1.63352e-19 -4.92985e-13 0)
(-1.91951e-19 -4.92985e-13 0)
(-2.20171e-19 -4.92985e-13 0)
(-2.47998e-19 -4.92985e-13 0)
(-2.75421e-19 -4.92985e-13 0)
(-3.02429e-19 -4.92985e-13 0)
(-3.29011e-19 -4.92985e-13 0)
(-3.55157e-19 -4.92985e-13 0)
(-3.8086e-19 -4.92985e-13 0)
(-4.06112e-19 -4.92985e-13 0)
(-4.30905e-19 -4.92985e-13 0)
(-4.55234e-19 -4.92985e-13 0)
(-4.79093e-19 -4.92985e-13 0)
(-5.02478e-19 -4.92985e-13 0)
(-5.25385e-19 -4.92985e-13 0)
(-5.47811e-19 -4.92985e-13 0)
(-5.69752e-19 -4.92985e-13 0)
(-5.91207e-19 -4.92985e-13 0)
(-6.12175e-19 -4.92985e-13 0)
(-6.32653e-19 -4.92985e-13 0)
(-6.52643e-19 -4.92985e-13 0)
(-6.72144e-19 -4.92985e-13 0)
(-6.91157e-19 -4.92985e-13 0)
(-7.09682e-19 -4.92985e-13 0)
(-7.27722e-19 -4.92985e-13 0)
(-7.45277e-19 -4.92985e-13 0)
(-7.62351e-19 -4.92985e-13 0)
(-7.78946e-19 -4.92985e-13 0)
(-7.95065e-19 -4.92985e-13 0)
(-8.1071e-19 -4.92985e-13 0)
(-8.25886e-19 -4.92985e-13 0)
(-8.40597e-19 -4.92985e-13 0)
(-8.54846e-19 -4.92985e-13 0)
(-8.68639e-19 -4.92985e-13 0)
(-8.81979e-19 -4.92985e-13 0)
(-8.94871e-19 -4.92985e-13 0)
(-9.0732e-19 -4.92985e-13 0)
(-9.19332e-19 -4.92985e-13 0)
(-9.30912e-19 -4.92985e-13 0)
(-9.42065e-19 -4.92985e-13 0)
(-9.52797e-19 -4.92985e-13 0)
(-9.63114e-19 -4.92985e-13 0)
(-9.73022e-19 -4.92985e-13 0)
(-9.82526e-19 -4.92985e-13 0)
(-9.91633e-19 -4.92985e-13 0)
(-1.00035e-18 -4.92985e-13 0)
(-1.00868e-18 -4.92985e-13 0)
(-1.01663e-18 -4.92985e-13 0)
(-1.02421e-18 -4.92985e-13 0)
(-1.03143e-18 -4.92985e-13 0)
(-1.03828e-18 -4.92985e-13 0)
(-1.04478e-18 -4.92985e-13 0)
(-1.05094e-18 -4.92985e-13 0)
(-1.05675e-18 -4.92985e-13 0)
(-1.06223e-18 -4.92985e-13 0)
(-1.06739e-18 -4.92985e-13 0)
(-1.07222e-18 -4.92985e-13 0)
(-1.07674e-18 -4.92985e-13 0)
(-1.08095e-18 -4.92985e-13 0)
(-1.08486e-18 -4.92985e-13 0)
(-1.08847e-18 -4.92985e-13 0)
(-1.0918e-18 -4.92985e-13 0)
(-1.09484e-18 -4.92985e-13 0)
(-1.09761e-18 -4.92985e-13 0)
(-1.1001e-18 -4.92985e-13 0)
(-1.10234e-18 -4.92985e-13 0)
(-1.10431e-18 -4.92985e-13 0)
(-1.10603e-18 -4.92985e-13 0)
(-1.10751e-18 -4.92985e-13 0)
(-1.10875e-18 -4.92985e-13 0)
(-1.10975e-18 -4.92985e-13 0)
(-1.11052e-18 -4.92985e-13 0)
(-1.11108e-18 -4.92985e-13 0)
(-1.11141e-18 -4.92985e-13 0)
(-1.1115e-18 -4.92985e-13 0)
(-1.56777e-20 -4.92961e-13 0)
(-4.68846e-20 -4.92961e-13 0)
(-7.77844e-20 -4.92961e-13 0)
(-1.08358e-19 -4.92961e-13 0)
(-1.38588e-19 -4.92961e-13 0)
(-1.68456e-19 -4.92961e-13 0)
(-1.97948e-19 -4.92961e-13 0)
(-2.27049e-19 -4.92961e-13 0)
(-2.55745e-19 -4.92961e-13 0)
(-2.84024e-19 -4.92961e-13 0)
(-3.11874e-19 -4.92961e-13 0)
(-3.39285e-19 -4.92961e-13 0)
(-3.66247e-19 -4.92961e-13 0)
(-3.92751e-19 -4.92961e-13 0)
(-4.18789e-19 -4.92961e-13 0)
(-4.44354e-19 -4.92961e-13 0)
(-4.69441e-19 -4.92961e-13 0)
(-4.94042e-19 -4.92961e-13 0)
(-5.18154e-19 -4.92961e-13 0)
(-5.41773e-19 -4.92961e-13 0)
(-5.64895e-19 -4.92961e-13 0)
(-5.87517e-19 -4.92961e-13 0)
(-6.09638e-19 -4.92961e-13 0)
(-6.31255e-19 -4.92961e-13 0)
(-6.52368e-19 -4.92961e-13 0)
(-6.72977e-19 -4.92961e-13 0)
(-6.93081e-19 -4.92961e-13 0)
(-7.12681e-19 -4.92961e-13 0)
(-7.31779e-19 -4.92961e-13 0)
(-7.50375e-19 -4.92961e-13 0)
(-7.68472e-19 -4.92961e-13 0)
(-7.86072e-19 -4.92961e-13 0)
(-8.03177e-19 -4.92961e-13 0)
(-8.19791e-19 -4.92961e-13 0)
(-8.35917e-19 -4.92961e-13 0)
(-8.51559e-19 -4.92961e-13 0)
(-8.66721e-19 -4.92961e-13 0)
(-8.81407e-19 -4.92961e-13 0)
(-8.95621e-19 -4.92961e-13 0)
(-9.09368e-19 -4.92961e-13 0)
(-9.22654e-19 -4.92961e-13 0)
(-9.35482e-19 -4.92961e-13 0)
(-9.4786e-19 -4.92961e-13 0)
(-9.59792e-19 -4.92961e-13 0)
(-9.71284e-19 -4.92961e-13 0)
(-9.82341e-19 -4.92961e-13 0)
(-9.9297e-19 -4.92961e-13 0)
(-1.00318e-18 -4.92961e-13 0)
(-1.01297e-18 -4.92961e-13 0)
(-1.02235e-18 -4.92961e-13 0)
(-1.03133e-18 -4.92961e-13 0)
(-1.03991e-18 -4.92961e-13 0)
(-1.0481e-18 -4.92961e-13 0)
(-1.0559e-18 -4.92961e-13 0)
(-1.06333e-18 -4.92961e-13 0)
(-1.07039e-18 -4.92961e-13 0)
(-1.07709e-18 -4.92961e-13 0)
(-1.08342e-18 -4.92961e-13 0)
(-1.08941e-18 -4.92961e-13 0)
(-1.09505e-18 -4.92961e-13 0)
(-1.10036e-18 -4.92961e-13 0)
(-1.10533e-18 -4.92961e-13 0)
(-1.10998e-18 -4.92961e-13 0)
(-1.11431e-18 -4.92961e-13 0)
(-1.11833e-18 -4.92961e-13 0)
(-1.12205e-18 -4.92961e-13 0)
(-1.12547e-18 -4.92961e-13 0)
(-1.1286e-18 -4.92961e-13 0)
(-1.13144e-18 -4.92961e-13 0)
(-1.13401e-18 -4.92961e-13 0)
(-1.1363e-18 -4.92961e-13 0)
(-1.13833e-18 -4.92961e-13 0)
(-1.14009e-18 -4.92961e-13 0)
(-1.14161e-18 -4.92961e-13 0)
(-1.14288e-18 -4.92961e-13 0)
(-1.1439e-18 -4.92961e-13 0)
(-1.14469e-18 -4.92961e-13 0)
(-1.14525e-18 -4.92961e-13 0)
(-1.14559e-18 -4.92961e-13 0)
(-1.14571e-18 -4.92961e-13 0)
(-1.66465e-20 -4.92961e-13 0)
(-4.97816e-20 -4.92961e-13 0)
(-8.25906e-20 -4.92961e-13 0)
(-1.15053e-19 -4.92961e-13 0)
(-1.4715e-19 -4.92961e-13 0)
(-1.78863e-19 -4.92961e-13 0)
(-2.10177e-19 -4.92961e-13 0)
(-2.41074e-19 -4.92961e-13 0)
(-2.71542e-19 -4.92961e-13 0)
(-3.01565e-19 -4.92961e-13 0)
(-3.31133e-19 -4.92961e-13 0)
(-3.60234e-19 -4.92961e-13 0)
(-3.88858e-19 -4.92961e-13 0)
(-4.16995e-19 -4.92961e-13 0)
(-4.44637e-19 -4.92961e-13 0)
(-4.71776e-19 -4.92961e-13 0)
(-4.98406e-19 -4.92961e-13 0)
(-5.2452e-19 -4.92961e-13 0)
(-5.50114e-19 -4.92961e-13 0)
(-5.75184e-19 -4.92961e-13 0)
(-5.99725e-19 -4.92961e-13 0)
(-6.23736e-19 -4.92961e-13 0)
(-6.47213e-19 -4.92961e-13 0)
(-6.70154e-19 -4.92961e-13 0)
(-6.9256e-19 -4.92961e-13 0)
(-7.1443e-19 -4.92961e-13 0)
(-7.35763e-19 -4.92961e-13 0)
(-7.56561e-19 -4.92961e-13 0)
(-7.76824e-19 -4.92961e-13 0)
(-7.96554e-19 -4.92961e-13 0)
(-8.15754e-19 -4.92961e-13 0)
(-8.34425e-19 -4.92961e-13 0)
(-8.52571e-19 -4.92961e-13 0)
(-8.70195e-19 -4.92961e-13 0)
(-8.873e-19 -4.92961e-13 0)
(-9.0389e-19 -4.92961e-13 0)
(-9.1997e-19 -4.92961e-13 0)
(-9.35545e-19 -4.92961e-13 0)
(-9.50618e-19 -4.92961e-13 0)
(-9.65195e-19 -4.92961e-13 0)
(-9.79282e-19 -4.92961e-13 0)
(-9.92883e-19 -4.92961e-13 0)
(-1.006e-18 -4.92961e-13 0)
(-1.01865e-18 -4.92961e-13 0)
(-1.03083e-18 -4.92961e-13 0)
(-1.04255e-18 -4.92961e-13 0)
(-1.05382e-18 -4.92961e-13 0)
(-1.06463e-18 -4.92961e-13 0)
(-1.07501e-18 -4.92961e-13 0)
(-1.08495e-18 -4.92961e-13 0)
(-1.09446e-18 -4.92961e-13 0)
(-1.10355e-18 -4.92961e-13 0)
(-1.11222e-18 -4.92961e-13 0)
(-1.12049e-18 -4.92961e-13 0)
(-1.12836e-18 -4.92961e-13 0)
(-1.13583e-18 -4.92961e-13 0)
(-1.14291e-18 -4.92961e-13 0)
(-1.14962e-18 -4.92961e-13 0)
(-1.15595e-18 -4.92961e-13 0)
(-1.16192e-18 -4.92961e-13 0)
(-1.16753e-18 -4.92961e-13 0)
(-1.17279e-18 -4.92961e-13 0)
(-1.17771e-18 -4.92961e-13 0)
(-1.18229e-18 -4.92961e-13 0)
(-1.18654e-18 -4.92961e-13 0)
(-1.19047e-18 -4.92961e-13 0)
(-1.19408e-18 -4.92961e-13 0)
(-1.19738e-18 -4.92961e-13 0)
(-1.20038e-18 -4.92961e-13 0)
(-1.20308e-18 -4.92961e-13 0)
(-1.2055e-18 -4.92961e-13 0)
(-1.20763e-18 -4.92961e-13 0)
(-1.20949e-18 -4.92961e-13 0)
(-1.21108e-18 -4.92961e-13 0)
(-1.2124e-18 -4.92961e-13 0)
(-1.21348e-18 -4.92961e-13 0)
(-1.2143e-18 -4.92961e-13 0)
(-1.21488e-18 -4.92961e-13 0)
(-1.21522e-18 -4.92961e-13 0)
(-1.21533e-18 -4.92961e-13 0)
(-1.81393e-20 -4.92961e-13 0)
(-5.42459e-20 -4.92961e-13 0)
(-8.99969e-20 -4.92961e-13 0)
(-1.2537e-19 -4.92961e-13 0)
(-1.60345e-19 -4.92961e-13 0)
(-1.94901e-19 -4.92961e-13 0)
(-2.2902e-19 -4.92961e-13 0)
(-2.62686e-19 -4.92961e-13 0)
(-2.95883e-19 -4.92961e-13 0)
(-3.28595e-19 -4.92961e-13 0)
(-3.6081e-19 -4.92961e-13 0)
(-3.92515e-19 -4.92961e-13 0)
(-4.23699e-19 -4.92961e-13 0)
(-4.54352e-19 -4.92961e-13 0)
(-4.84464e-19 -4.92961e-13 0)
(-5.14028e-19 -4.92961e-13 0)
(-5.43035e-19 -4.92961e-13 0)
(-5.7148e-19 -4.92961e-13 0)
(-5.99357e-19 -4.92961e-13 0)
(-6.26661e-19 -4.92961e-13 0)
(-6.53388e-19 -4.92961e-13 0)
(-6.79536e-19 -4.92961e-13 0)
(-7.05101e-19 -4.92961e-13 0)
(-7.30083e-19 -4.92961e-13 0)
(-7.54479e-19 -4.92961e-13 0)
(-7.7829e-19 -4.92961e-13 0)
(-8.01515e-19 -4.92961e-13 0)
(-8.24156e-19 -4.92961e-13 0)
(-8.46213e-19 -4.92961e-13 0)
(-8.67689e-19 -4.92961e-13 0)
(-8.88586e-19 -4.92961e-13 0)
(-9.08906e-19 -4.92961e-13 0)
(-9.28652e-19 -4.92961e-13 0)
(-9.47829e-19 -4.92961e-13 0)
(-9.6644e-19 -4.92961e-13 0)
(-9.84489e-19 -4.92961e-13 0)
(-1.00198e-18 -4.92961e-13 0)
(-1.01892e-18 -4.92961e-13 0)
(-1.03532e-18 -4.92961e-13 0)
(-1.05117e-18 -4.92961e-13 0)
(-1.06649e-18 -4.92961e-13 0)
(-1.08128e-18 -4.92961e-13 0)
(-1.09554e-18 -4.92961e-13 0)
(-1.10929e-18 -4.92961e-13 0)
(-1.12253e-18 -4.92961e-13 0)
(-1.13527e-18 -4.92961e-13 0)
(-1.14751e-18 -4.92961e-13 0)
(-1.15926e-18 -4.92961e-13 0)
(-1.17053e-18 -4.92961e-13 0)
(-1.18133e-18 -4.92961e-13 0)
(-1.19165e-18 -4.92961e-13 0)
(-1.20152e-18 -4.92961e-13 0)
(-1.21094e-18 -4.92961e-13 0)
(-1.21991e-18 -4.92961e-13 0)
(-1.22845e-18 -4.92961e-13 0)
(-1.23656e-18 -4.92961e-13 0)
(-1.24424e-18 -4.92961e-13 0)
(-1.25152e-18 -4.92961e-13 0)
(-1.25839e-18 -4.92961e-13 0)
(-1.26485e-18 -4.92961e-13 0)
(-1.27093e-18 -4.92961e-13 0)
(-1.27663e-18 -4.92961e-13 0)
(-1.28196e-18 -4.92961e-13 0)
(-1.28691e-18 -4.92961e-13 0)
(-1.29151e-18 -4.92961e-13 0)
(-1.29575e-18 -4.92961e-13 0)
(-1.29966e-18 -4.92961e-13 0)
(-1.30322e-18 -4.92961e-13 0)
(-1.30646e-18 -4.92961e-13 0)
(-1.30937e-18 -4.92961e-13 0)
(-1.31197e-18 -4.92961e-13 0)
(-1.31427e-18 -4.92961e-13 0)
(-1.31626e-18 -4.92961e-13 0)
(-1.31797e-18 -4.92961e-13 0)
(-1.31938e-18 -4.92961e-13 0)
(-1.32052e-18 -4.92961e-13 0)
(-1.32139e-18 -4.92961e-13 0)
(-1.32199e-18 -4.92961e-13 0)
(-1.32234e-18 -4.92961e-13 0)
(-1.32243e-18 -4.92961e-13 0)
(-2.02056e-20 -4.92961e-13 0)
(-6.04252e-20 -4.92961e-13 0)
(-1.00248e-19 -4.92961e-13 0)
(-1.3965e-19 -4.92961e-13 0)
(-1.78608e-19 -4.92961e-13 0)
(-2.17098e-19 -4.92961e-13 0)
(-2.55102e-19 -4.92961e-13 0)
(-2.92599e-19 -4.92961e-13 0)
(-3.29572e-19 -4.92961e-13 0)
(-3.66006e-19 -4.92961e-13 0)
(-4.01883e-19 -4.92961e-13 0)
(-4.37192e-19 -4.92961e-13 0)
(-4.71919e-19 -4.92961e-13 0)
(-5.06053e-19 -4.92961e-13 0)
(-5.39583e-19 -4.92961e-13 0)
(-5.725e-19 -4.92961e-13 0)
(-6.04796e-19 -4.92961e-13 0)
(-6.36465e-19 -4.92961e-13 0)
(-6.67499e-19 -4.92961e-13 0)
(-6.97893e-19 -4.92961e-13 0)
(-7.27644e-19 -4.92961e-13 0)
(-7.56747e-19 -4.92961e-13 0)
(-7.852e-19 -4.92961e-13 0)
(-8.13001e-19 -4.92961e-13 0)
(-8.40149e-19 -4.92961e-13 0)
(-8.66642e-19 -4.92961e-13 0)
(-8.92483e-19 -4.92961e-13 0)
(-9.17671e-19 -4.92961e-13 0)
(-9.42207e-19 -4.92961e-13 0)
(-9.66095e-19 -4.92961e-13 0)
(-9.89335e-19 -4.92961e-13 0)
(-1.01193e-18 -4.92961e-13 0)
(-1.03389e-18 -4.92961e-13 0)
(-1.05521e-18 -4.92961e-13 0)
(-1.0759e-18 -4.92961e-13 0)
(-1.09596e-18 -4.92961e-13 0)
(-1.11541e-18 -4.92961e-13 0)
(-1.13423e-18 -4.92961e-13 0)
(-1.15245e-18 -4.92961e-13 0)
(-1.17006e-18 -4.92961e-13 0)
(-1.18708e-18 -4.92961e-13 0)
(-1.20351e-18 -4.92961e-13 0)
(-1.21935e-18 -4.92961e-13 0)
(-1.23462e-18 -4.92961e-13 0)
(-1.24931e-18 -4.92961e-13 0)
(-1.26345e-18 -4.92961e-13 0)
(-1.27704e-18 -4.92961e-13 0)
(-1.29008e-18 -4.92961e-13 0)
(-1.30258e-18 -4.92961e-13 0)
(-1.31456e-18 -4.92961e-13 0)
(-1.32601e-18 -4.92961e-13 0)
(-1.33695e-18 -4.92961e-13 0)
(-1.34739e-18 -4.92961e-13 0)
(-1.35733e-18 -4.92961e-13 0)
(-1.36679e-18 -4.92961e-13 0)
(-1.37577e-18 -4.92961e-13 0)
(-1.38428e-18 -4.92961e-13 0)
(-1.39233e-18 -4.92961e-13 0)
(-1.39993e-18 -4.92961e-13 0)
(-1.40709e-18 -4.92961e-13 0)
(-1.41381e-18 -4.92961e-13 0)
(-1.42011e-18 -4.92961e-13 0)
(-1.42599e-18 -4.92961e-13 0)
(-1.43146e-18 -4.92961e-13 0)
(-1.43653e-18 -4.92961e-13 0)
(-1.44121e-18 -4.92961e-13 0)
(-1.44551e-18 -4.92961e-13 0)
(-1.44944e-18 -4.92961e-13 0)
(-1.453e-18 -4.92961e-13 0)
(-1.4562e-18 -4.92961e-13 0)
(-1.45905e-18 -4.92961e-13 0)
(-1.46156e-18 -4.92961e-13 0)
(-1.46374e-18 -4.92961e-13 0)
(-1.4656e-18 -4.92961e-13 0)
(-1.46713e-18 -4.92961e-13 0)
(-1.46836e-18 -4.92961e-13 0)
(-1.46929e-18 -4.92961e-13 0)
(-1.46992e-18 -4.92961e-13 0)
(-1.47026e-18 -4.92961e-13 0)
(-1.47033e-18 -4.92961e-13 0)
(-2.29143e-20 -4.92961e-13 0)
(-6.85253e-20 -4.92961e-13 0)
(-1.13686e-19 -4.92961e-13 0)
(-1.58369e-19 -4.92961e-13 0)
(-2.02547e-19 -4.92961e-13 0)
(-2.46195e-19 -4.92961e-13 0)
(-2.89289e-19 -4.92961e-13 0)
(-3.31808e-19 -4.92961e-13 0)
(-3.73731e-19 -4.92961e-13 0)
(-4.1504e-19 -4.92961e-13 0)
(-4.55718e-19 -4.92961e-13 0)
(-4.95748e-19 -4.92961e-13 0)
(-5.35117e-19 -4.92961e-13 0)
(-5.73811e-19 -4.92961e-13 0)
(-6.11819e-19 -4.92961e-13 0)
(-6.4913e-19 -4.92961e-13 0)
(-6.85734e-19 -4.92961e-13 0)
(-7.21624e-19 -4.92961e-13 0)
(-7.56793e-19 -4.92961e-13 0)
(-7.91234e-19 -4.92961e-13 0)
(-8.24942e-19 -4.92961e-13 0)
(-8.57914e-19 -4.92961e-13 0)
(-8.90147e-19 -4.92961e-13 0)
(-9.21638e-19 -4.92961e-13 0)
(-9.52386e-19 -4.92961e-13 0)
(-9.8239e-19 -4.92961e-13 0)
(-1.01165e-18 -4.92961e-13 0)
(-1.04017e-18 -4.92961e-13 0)
(-1.06795e-18 -4.92961e-13 0)
(-1.09499e-18 -4.92961e-13 0)
(-1.1213e-18 -4.92961e-13 0)
(-1.14687e-18 -4.92961e-13 0)
(-1.17172e-18 -4.92961e-13 0)
(-1.19584e-18 -4.92961e-13 0)
(-1.21925e-18 -4.92961e-13 0)
(-1.24194e-18 -4.92961e-13 0)
(-1.26393e-18 -4.92961e-13 0)
(-1.28522e-18 -4.92961e-13 0)
(-1.30581e-18 -4.92961e-13 0)
(-1.32572e-18 -4.92961e-13 0)
(-1.34495e-18 -4.92961e-13 0)
(-1.36352e-18 -4.92961e-13 0)
(-1.38142e-18 -4.92961e-13 0)
(-1.39866e-18 -4.92961e-13 0)
(-1.41526e-18 -4.92961e-13 0)
(-1.43123e-18 -4.92961e-13 0)
(-1.44656e-18 -4.92961e-13 0)
(-1.46128e-18 -4.92961e-13 0)
(-1.47539e-18 -4.92961e-13 0)
(-1.4889e-18 -4.92961e-13 0)
(-1.50181e-18 -4.92961e-13 0)
(-1.51415e-18 -4.92961e-13 0)
(-1.52592e-18 -4.92961e-13 0)
(-1.53712e-18 -4.92961e-13 0)
(-1.54778e-18 -4.92961e-13 0)
(-1.55789e-18 -4.92961e-13 0)
(-1.56747e-18 -4.92961e-13 0)
(-1.57653e-18 -4.92961e-13 0)
(-1.58508e-18 -4.92961e-13 0)
(-1.59312e-18 -4.92961e-13 0)
(-1.60067e-18 -4.92961e-13 0)
(-1.60775e-18 -4.92961e-13 0)
(-1.61434e-18 -4.92961e-13 0)
(-1.62048e-18 -4.92961e-13 0)
(-1.62617e-18 -4.92961e-13 0)
(-1.63141e-18 -4.92961e-13 0)
(-1.63622e-18 -4.92961e-13 0)
(-1.6406e-18 -4.92961e-13 0)
(-1.64457e-18 -4.92961e-13 0)
(-1.64814e-18 -4.92961e-13 0)
(-1.65131e-18 -4.92961e-13 0)
(-1.6541e-18 -4.92961e-13 0)
(-1.65651e-18 -4.92961e-13 0)
(-1.65855e-18 -4.92961e-13 0)
(-1.66023e-18 -4.92961e-13 0)
(-1.66157e-18 -4.92961e-13 0)
(-1.66256e-18 -4.92961e-13 0)
(-1.66322e-18 -4.92961e-13 0)
(-1.66356e-18 -4.92961e-13 0)
(-1.66358e-18 -4.92961e-13 0)
(-2.63562e-20 -4.92961e-13 0)
(-7.88183e-20 -4.92961e-13 0)
(-1.30762e-19 -4.92961e-13 0)
(-1.82156e-19 -4.92961e-13 0)
(-2.32967e-19 -4.92961e-13 0)
(-2.83167e-19 -4.92961e-13 0)
(-3.3273e-19 -4.92961e-13 0)
(-3.81628e-19 -4.92961e-13 0)
(-4.2984e-19 -4.92961e-13 0)
(-4.77343e-19 -4.92961e-13 0)
(-5.24117e-19 -4.92961e-13 0)
(-5.70145e-19 -4.92961e-13 0)
(-6.15409e-19 -4.92961e-13 0)
(-6.59894e-19 -4.92961e-13 0)
(-7.03587e-19 -4.92961e-13 0)
(-7.46475e-19 -4.92961e-13 0)
(-7.88548e-19 -4.92961e-13 0)
(-8.29797e-19 -4.92961e-13 0)
(-8.70212e-19 -4.92961e-13 0)
(-9.09788e-19 -4.92961e-13 0)
(-9.48518e-19 -4.92961e-13 0)
(-9.86398e-19 -4.92961e-13 0)
(-1.02342e-18 -4.92961e-13 0)
(-1.0596e-18 -4.92961e-13 0)
(-1.09491e-18 -4.92961e-13 0)
(-1.12936e-18 -4.92961e-13 0)
(-1.16296e-18 -4.92961e-13 0)
(-1.1957e-18 -4.92961e-13 0)
(-1.22759e-18 -4.92961e-13 0)
(-1.25862e-18 -4.92961e-13 0)
(-1.28881e-18 -4.92961e-13 0)
(-1.31815e-18 -4.92961e-13 0)
(-1.34666e-18 -4.92961e-13 0)
(-1.37433e-18 -4.92961e-13 0)
(-1.40117e-18 -4.92961e-13 0)
(-1.42719e-18 -4.92961e-13 0)
(-1.4524e-18 -4.92961e-13 0)
(-1.4768e-18 -4.92961e-13 0)
(-1.5004e-18 -4.92961e-13 0)
(-1.52321e-18 -4.92961e-13 0)
(-1.54524e-18 -4.92961e-13 0)
(-1.5665e-18 -4.92961e-13 0)
(-1.587e-18 -4.92961e-13 0)
(-1.60674e-18 -4.92961e-13 0)
(-1.62574e-18 -4.92961e-13 0)
(-1.64401e-18 -4.92961e-13 0)
(-1.66155e-18 -4.92961e-13 0)
(-1.67838e-18 -4.92961e-13 0)
(-1.69451e-18 -4.92961e-13 0)
(-1.70995e-18 -4.92961e-13 0)
(-1.72471e-18 -4.92961e-13 0)
(-1.7388e-18 -4.92961e-13 0)
(-1.75223e-18 -4.92961e-13 0)
(-1.76502e-18 -4.92961e-13 0)
(-1.77718e-18 -4.92961e-13 0)
(-1.78871e-18 -4.92961e-13 0)
(-1.79963e-18 -4.92961e-13 0)
(-1.80995e-18 -4.92961e-13 0)
(-1.81968e-18 -4.92961e-13 0)
(-1.82884e-18 -4.92961e-13 0)
(-1.83743e-18 -4.92961e-13 0)
(-1.84547e-18 -4.92961e-13 0)
(-1.85296e-18 -4.92961e-13 0)
(-1.85993e-18 -4.92961e-13 0)
(-1.86637e-18 -4.92961e-13 0)
(-1.87231e-18 -4.92961e-13 0)
(-1.87775e-18 -4.92961e-13 0)
(-1.8827e-18 -4.92961e-13 0)
(-1.88718e-18 -4.92961e-13 0)
(-1.89119e-18 -4.92961e-13 0)
(-1.89476e-18 -4.92961e-13 0)
(-1.89787e-18 -4.92961e-13 0)
(-1.90056e-18 -4.92961e-13 0)
(-1.90283e-18 -4.92961e-13 0)
(-1.90468e-18 -4.92961e-13 0)
(-1.90614e-18 -4.92961e-13 0)
(-1.9072e-18 -4.92961e-13 0)
(-1.90788e-18 -4.92961e-13 0)
(-1.9082e-18 -4.92961e-13 0)
(-1.90815e-18 -4.92961e-13 0)
(-3.06484e-20 -4.92961e-13 0)
(-9.16537e-20 -4.92961e-13 0)
(-1.52056e-19 -4.92961e-13 0)
(-2.11817e-19 -4.92961e-13 0)
(-2.709e-19 -4.92961e-13 0)
(-3.2927e-19 -4.92961e-13 0)
(-3.86896e-19 -4.92961e-13 0)
(-4.43749e-19 -4.92961e-13 0)
(-4.99799e-19 -4.92961e-13 0)
(-5.55023e-19 -4.92961e-13 0)
(-6.09396e-19 -4.92961e-13 0)
(-6.62898e-19 -4.92961e-13 0)
(-7.15507e-19 -4.92961e-13 0)
(-7.67208e-19 -4.92961e-13 0)
(-8.17984e-19 -4.92961e-13 0)
(-8.6782e-19 -4.92961e-13 0)
(-9.16704e-19 -4.92961e-13 0)
(-9.64624e-19 -4.92961e-13 0)
(-1.01157e-18 -4.92961e-13 0)
(-1.05754e-18 -4.92961e-13 0)
(-1.10252e-18 -4.92961e-13 0)
(-1.14651e-18 -4.92961e-13 0)
(-1.1895e-18 -4.92961e-13 0)
(-1.23149e-18 -4.92961e-13 0)
(-1.27248e-18 -4.92961e-13 0)
(-1.31247e-18 -4.92961e-13 0)
(-1.35145e-18 -4.92961e-13 0)
(-1.38944e-18 -4.92961e-13 0)
(-1.42643e-18 -4.92961e-13 0)
(-1.46243e-18 -4.92961e-13 0)
(-1.49743e-18 -4.92961e-13 0)
(-1.53146e-18 -4.92961e-13 0)
(-1.5645e-18 -4.92961e-13 0)
(-1.59657e-18 -4.92961e-13 0)
(-1.62767e-18 -4.92961e-13 0)
(-1.65782e-18 -4.92961e-13 0)
(-1.68702e-18 -4.92961e-13 0)
(-1.71527e-18 -4.92961e-13 0)
(-1.7426e-18 -4.92961e-13 0)
(-1.76901e-18 -4.92961e-13 0)
(-1.7945e-18 -4.92961e-13 0)
(-1.8191e-18 -4.92961e-13 0)
(-1.8428e-18 -4.92961e-13 0)
(-1.86563e-18 -4.92961e-13 0)
(-1.88759e-18 -4.92961e-13 0)
(-1.9087e-18 -4.92961e-13 0)
(-1.92897e-18 -4.92961e-13 0)
(-1.94841e-18 -4.92961e-13 0)
(-1.96703e-18 -4.92961e-13 0)
(-1.98485e-18 -4.92961e-13 0)
(-2.00187e-18 -4.92961e-13 0)
(-2.01812e-18 -4.92961e-13 0)
(-2.03361e-18 -4.92961e-13 0)
(-2.04835e-18 -4.92961e-13 0)
(-2.06234e-18 -4.92961e-13 0)
(-2.07562e-18 -4.92961e-13 0)
(-2.08818e-18 -4.92961e-13 0)
(-2.10005e-18 -4.92961e-13 0)
(-2.11123e-18 -4.92961e-13 0)
(-2.12174e-18 -4.92961e-13 0)
(-2.1316e-18 -4.92961e-13 0)
(-2.14081e-18 -4.92961e-13 0)
(-2.1494e-18 -4.92961e-13 0)
(-2.15737e-18 -4.92961e-13 0)
(-2.16473e-18 -4.92961e-13 0)
(-2.17151e-18 -4.92961e-13 0)
(-2.17771e-18 -4.92961e-13 0)
(-2.18334e-18 -4.92961e-13 0)
(-2.18843e-18 -4.92961e-13 0)
(-2.19297e-18 -4.92961e-13 0)
(-2.19699e-18 -4.92961e-13 0)
(-2.2005e-18 -4.92961e-13 0)
(-2.20351e-18 -4.92961e-13 0)
(-2.20603e-18 -4.92961e-13 0)
(-2.20808e-18 -4.92961e-13 0)
(-2.20966e-18 -4.92961e-13 0)
(-2.21079e-18 -4.92961e-13 0)
(-2.21148e-18 -4.92961e-13 0)
(-2.21174e-18 -4.92961e-13 0)
(-2.21158e-18 -4.92961e-13 0)
(-3.59385e-20 -4.92961e-13 0)
(-1.07474e-19 -4.92961e-13 0)
(-1.78301e-19 -4.92961e-13 0)
(-2.48374e-19 -4.92961e-13 0)
(-3.17651e-19 -4.92961e-13 0)
(-3.86089e-19 -4.92961e-13 0)
(-4.53652e-19 -4.92961e-13 0)
(-5.20304e-19 -4.92961e-13 0)
(-5.86012e-19 -4.92961e-13 0)
(-6.50747e-19 -4.92961e-13 0)
(-7.1448e-19 -4.92961e-13 0)
(-7.77186e-19 -4.92961e-13 0)
(-8.38842e-19 -4.92961e-13 0)
(-8.99426e-19 -4.92961e-13 0)
(-9.58921e-19 -4.92961e-13 0)
(-1.01731e-18 -4.92961e-13 0)
(-1.07457e-18 -4.92961e-13 0)
(-1.1307e-18 -4.92961e-13 0)
(-1.18569e-18 -4.92961e-13 0)
(-1.23952e-18 -4.92961e-13 0)
(-1.29218e-18 -4.92961e-13 0)
(-1.34368e-18 -4.92961e-13 0)
(-1.394e-18 -4.92961e-13 0)
(-1.44314e-18 -4.92961e-13 0)
(-1.4911e-18 -4.92961e-13 0)
(-1.53789e-18 -4.92961e-13 0)
(-1.58349e-18 -4.92961e-13 0)
(-1.62792e-18 -4.92961e-13 0)
(-1.67117e-18 -4.92961e-13 0)
(-1.71325e-18 -4.92961e-13 0)
(-1.75416e-18 -4.92961e-13 0)
(-1.79392e-18 -4.92961e-13 0)
(-1.83252e-18 -4.92961e-13 0)
(-1.86998e-18 -4.92961e-13 0)
(-1.90631e-18 -4.92961e-13 0)
(-1.9415e-18 -4.92961e-13 0)
(-1.97558e-18 -4.92961e-13 0)
(-2.00856e-18 -4.92961e-13 0)
(-2.04043e-18 -4.92961e-13 0)
(-2.07123e-18 -4.92961e-13 0)
(-2.10095e-18 -4.92961e-13 0)
(-2.12962e-18 -4.92961e-13 0)
(-2.15724e-18 -4.92961e-13 0)
(-2.18383e-18 -4.92961e-13 0)
(-2.20941e-18 -4.92961e-13 0)
(-2.23398e-18 -4.92961e-13 0)
(-2.25756e-18 -4.92961e-13 0)
(-2.28017e-18 -4.92961e-13 0)
(-2.30182e-18 -4.92961e-13 0)
(-2.32252e-18 -4.92961e-13 0)
(-2.3423e-18 -4.92961e-13 0)
(-2.36117e-18 -4.92961e-13 0)
(-2.37914e-18 -4.92961e-13 0)
(-2.39623e-18 -4.92961e-13 0)
(-2.41246e-18 -4.92961e-13 0)
(-2.42784e-18 -4.92961e-13 0)
(-2.44238e-18 -4.92961e-13 0)
(-2.45611e-18 -4.92961e-13 0)
(-2.46904e-18 -4.92961e-13 0)
(-2.48118e-18 -4.92961e-13 0)
(-2.49256e-18 -4.92961e-13 0)
(-2.50318e-18 -4.92961e-13 0)
(-2.51306e-18 -4.92961e-13 0)
(-2.52223e-18 -4.92961e-13 0)
(-2.53069e-18 -4.92961e-13 0)
(-2.53846e-18 -4.92961e-13 0)
(-2.54555e-18 -4.92961e-13 0)
(-2.55199e-18 -4.92961e-13 0)
(-2.55778e-18 -4.92961e-13 0)
(-2.56295e-18 -4.92961e-13 0)
(-2.5675e-18 -4.92961e-13 0)
(-2.57145e-18 -4.92961e-13 0)
(-2.57482e-18 -4.92961e-13 0)
(-2.57762e-18 -4.92961e-13 0)
(-2.57986e-18 -4.92961e-13 0)
(-2.58156e-18 -4.92961e-13 0)
(-2.58274e-18 -4.92961e-13 0)
(-2.5834e-18 -4.92961e-13 0)
(-2.58356e-18 -4.92961e-13 0)
(-2.58324e-18 -4.92961e-13 0)
(-4.24117e-20 -4.92961e-13 0)
(-1.26831e-19 -4.92961e-13 0)
(-2.10414e-19 -4.92961e-13 0)
(-2.93105e-19 -4.92961e-13 0)
(-3.74853e-19 -4.92961e-13 0)
(-4.55609e-19 -4.92961e-13 0)
(-5.35327e-19 -4.92961e-13 0)
(-6.13966e-19 -4.92961e-13 0)
(-6.91486e-19 -4.92961e-13 0)
(-7.67852e-19 -4.92961e-13 0)
(-8.43029e-19 -4.92961e-13 0)
(-9.16988e-19 -4.92961e-13 0)
(-9.89701e-19 -4.92961e-13 0)
(-1.06114e-18 -4.92961e-13 0)
(-1.13129e-18 -4.92961e-13 0)
(-1.20012e-18 -4.92961e-13 0)
(-1.26763e-18 -4.92961e-13 0)
(-1.33378e-18 -4.92961e-13 0)
(-1.39858e-18 -4.92961e-13 0)
(-1.462e-18 -4.92961e-13 0)
(-1.52404e-18 -4.92961e-13 0)
(-1.58469e-18 -4.92961e-13 0)
(-1.64395e-18 -4.92961e-13 0)
(-1.70181e-18 -4.92961e-13 0)
(-1.75827e-18 -4.92961e-13 0)
(-1.81334e-18 -4.92961e-13 0)
(-1.867e-18 -4.92961e-13 0)
(-1.91926e-18 -4.92961e-13 0)
(-1.97013e-18 -4.92961e-13 0)
(-2.01962e-18 -4.92961e-13 0)
(-2.06772e-18 -4.92961e-13 0)
(-2.11445e-18 -4.92961e-13 0)
(-2.15981e-18 -4.92961e-13 0)
(-2.20381e-18 -4.92961e-13 0)
(-2.24647e-18 -4.92961e-13 0)
(-2.28779e-18 -4.92961e-13 0)
(-2.32779e-18 -4.92961e-13 0)
(-2.36648e-18 -4.92961e-13 0)
(-2.40387e-18 -4.92961e-13 0)
(-2.43998e-18 -4.92961e-13 0)
(-2.47482e-18 -4.92961e-13 0)
(-2.50841e-18 -4.92961e-13 0)
(-2.54076e-18 -4.92961e-13 0)
(-2.5719e-18 -4.92961e-13 0)
(-2.60183e-18 -4.92961e-13 0)
(-2.63057e-18 -4.92961e-13 0)
(-2.65815e-18 -4.92961e-13 0)
(-2.68458e-18 -4.92961e-13 0)
(-2.70987e-18 -4.92961e-13 0)
(-2.73405e-18 -4.92961e-13 0)
(-2.75713e-18 -4.92961e-13 0)
(-2.77914e-18 -4.92961e-13 0)
(-2.80009e-18 -4.92961e-13 0)
(-2.82e-18 -4.92961e-13 0)
(-2.83888e-18 -4.92961e-13 0)
(-2.85677e-18 -4.92961e-13 0)
(-2.87368e-18 -4.92961e-13 0)
(-2.88962e-18 -4.92961e-13 0)
(-2.90462e-18 -4.92961e-13 0)
(-2.9187e-18 -4.92961e-13 0)
(-2.93187e-18 -4.92961e-13 0)
(-2.94415e-18 -4.92961e-13 0)
(-2.95557e-18 -4.92961e-13 0)
(-2.96614e-18 -4.92961e-13 0)
(-2.97587e-18 -4.92961e-13 0)
(-2.9848e-18 -4.92961e-13 0)
(-2.99293e-18 -4.92961e-13 0)
(-3.00029e-18 -4.92961e-13 0)
(-3.00689e-18 -4.92961e-13 0)
(-3.01276e-18 -4.92961e-13 0)
(-3.0179e-18 -4.92961e-13 0)
(-3.02234e-18 -4.92961e-13 0)
(-3.02609e-18 -4.92961e-13 0)
(-3.02918e-18 -4.92961e-13 0)
(-3.03161e-18 -4.92961e-13 0)
(-3.03341e-18 -4.92961e-13 0)
(-3.03459e-18 -4.92961e-13 0)
(-3.03517e-18 -4.92961e-13 0)
(-3.03517e-18 -4.92961e-13 0)
(-3.03459e-18 -4.92961e-13 0)
(-5.02988e-20 -4.92961e-13 0)
(-1.50417e-19 -4.92961e-13 0)
(-2.49541e-19 -4.92961e-13 0)
(-3.47605e-19 -4.92961e-13 0)
(-4.44546e-19 -4.92961e-13 0)
(-5.40306e-19 -4.92961e-13 0)
(-6.3483e-19 -4.92961e-13 0)
(-7.28067e-19 -4.92961e-13 0)
(-8.1997e-19 -4.92961e-13 0)
(-9.10497e-19 -4.92961e-13 0)
(-9.99605e-19 -4.92961e-13 0)
(-1.08726e-18 -4.92961e-13 0)
(-1.17343e-18 -4.92961e-13 0)
(-1.25808e-18 -4.92961e-13 0)
(-1.34118e-18 -4.92961e-13 0)
(-1.42272e-18 -4.92961e-13 0)
(-1.50267e-18 -4.92961e-13 0)
(-1.58101e-18 -4.92961e-13 0)
(-1.65772e-18 -4.92961e-13 0)
(-1.7328e-18 -4.92961e-13 0)
(-1.80622e-18 -4.92961e-13 0)
(-1.87799e-18 -4.92961e-13 0)
(-1.9481e-18 -4.92961e-13 0)
(-2.01653e-18 -4.92961e-13 0)
(-2.0833e-18 -4.92961e-13 0)
(-2.14839e-18 -4.92961e-13 0)
(-2.21182e-18 -4.92961e-13 0)
(-2.27358e-18 -4.92961e-13 0)
(-2.33367e-18 -4.92961e-13 0)
(-2.39211e-18 -4.92961e-13 0)
(-2.4489e-18 -4.92961e-13 0)
(-2.50405e-18 -4.92961e-13 0)
(-2.55758e-18 -4.92961e-13 0)
(-2.60948e-18 -4.92961e-13 0)
(-2.65978e-18 -4.92961e-13 0)
(-2.70849e-18 -4.92961e-13 0)
(-2.75563e-18 -4.92961e-13 0)
(-2.8012e-18 -4.92961e-13 0)
(-2.84523e-18 -4.92961e-13 0)
(-2.88773e-18 -4.92961e-13 0)
(-2.92872e-18 -4.92961e-13 0)
(-2.96823e-18 -4.92961e-13 0)
(-3.00626e-18 -4.92961e-13 0)
(-3.04284e-18 -4.92961e-13 0)
(-3.07799e-18 -4.92961e-13 0)
(-3.11173e-18 -4.92961e-13 0)
(-3.14409e-18 -4.92961e-13 0)
(-3.17507e-18 -4.92961e-13 0)
(-3.20471e-18 -4.92961e-13 0)
(-3.23303e-18 -4.92961e-13 0)
(-3.26005e-18 -4.92961e-13 0)
(-3.28579e-18 -4.92961e-13 0)
(-3.31027e-18 -4.92961e-13 0)
(-3.33352e-18 -4.92961e-13 0)
(-3.35556e-18 -4.92961e-13 0)
(-3.37642e-18 -4.92961e-13 0)
(-3.39611e-18 -4.92961e-13 0)
(-3.41466e-18 -4.92961e-13 0)
(-3.43209e-18 -4.92961e-13 0)
(-3.44843e-18 -4.92961e-13 0)
(-3.4637e-18 -4.92961e-13 0)
(-3.47792e-18 -4.92961e-13 0)
(-3.49111e-18 -4.92961e-13 0)
(-3.5033e-18 -4.92961e-13 0)
(-3.5145e-18 -4.92961e-13 0)
(-3.52475e-18 -4.92961e-13 0)
(-3.53407e-18 -4.92961e-13 0)
(-3.54246e-18 -4.92961e-13 0)
(-3.54997e-18 -4.92961e-13 0)
(-3.5566e-18 -4.92961e-13 0)
(-3.56239e-18 -4.92961e-13 0)
(-3.56734e-18 -4.92961e-13 0)
(-3.57149e-18 -4.92961e-13 0)
(-3.57484e-18 -4.92961e-13 0)
(-3.57744e-18 -4.92961e-13 0)
(-3.57928e-18 -4.92961e-13 0)
(-3.58039e-18 -4.92961e-13 0)
(-3.5808e-18 -4.92961e-13 0)
(-3.58052e-18 -4.92961e-13 0)
(-3.57957e-18 -4.92961e-13 0)
(-5.98874e-20 -4.9296e-13 0)
(-1.7909e-19 -4.9296e-13 0)
(-2.97108e-19 -4.9296e-13 0)
(-4.13859e-19 -4.9296e-13 0)
(-5.29267e-19 -4.9296e-13 0)
(-6.43263e-19 -4.9296e-13 0)
(-7.5578e-19 -4.9296e-13 0)
(-8.66755e-19 -4.9296e-13 0)
(-9.76133e-19 -4.9296e-13 0)
(-1.08386e-18 -4.9296e-13 0)
(-1.18989e-18 -4.9296e-13 0)
(-1.29417e-18 -4.9296e-13 0)
(-1.39667e-18 -4.9296e-13 0)
(-1.49735e-18 -4.9296e-13 0)
(-1.59618e-18 -4.9296e-13 0)
(-1.69312e-18 -4.9296e-13 0)
(-1.78816e-18 -4.92961e-13 0)
(-1.88127e-18 -4.92961e-13 0)
(-1.97242e-18 -4.92961e-13 0)
(-2.06161e-18 -4.92961e-13 0)
(-2.14883e-18 -4.92961e-13 0)
(-2.23405e-18 -4.92961e-13 0)
(-2.31728e-18 -4.92961e-13 0)
(-2.3985e-18 -4.92961e-13 0)
(-2.47772e-18 -4.92961e-13 0)
(-2.55494e-18 -4.92961e-13 0)
(-2.63015e-18 -4.92961e-13 0)
(-2.70337e-18 -4.92961e-13 0)
(-2.77459e-18 -4.92961e-13 0)
(-2.84382e-18 -4.92961e-13 0)
(-2.91108e-18 -4.92961e-13 0)
(-2.97638e-18 -4.92961e-13 0)
(-3.03973e-18 -4.92961e-13 0)
(-3.10113e-18 -4.92961e-13 0)
(-3.16062e-18 -4.92961e-13 0)
(-3.2182e-18 -4.92961e-13 0)
(-3.2739e-18 -4.92961e-13 0)
(-3.32772e-18 -4.92961e-13 0)
(-3.37971e-18 -4.92961e-13 0)
(-3.42986e-18 -4.92961e-13 0)
(-3.47821e-18 -4.92961e-13 0)
(-3.52478e-18 -4.92961e-13 0)
(-3.56959e-18 -4.92961e-13 0)
(-3.61267e-18 -4.92961e-13 0)
(-3.65404e-18 -4.92961e-13 0)
(-3.69373e-18 -4.92961e-13 0)
(-3.73176e-18 -4.92961e-13 0)
(-3.76816e-18 -4.92961e-13 0)
(-3.80295e-18 -4.92961e-13 0)
(-3.83617e-18 -4.92961e-13 0)
(-3.86784e-18 -4.92961e-13 0)
(-3.89798e-18 -4.92961e-13 0)
(-3.92663e-18 -4.92961e-13 0)
(-3.95381e-18 -4.92961e-13 0)
(-3.97955e-18 -4.92961e-13 0)
(-4.00388e-18 -4.92961e-13 0)
(-4.02682e-18 -4.92961e-13 0)
(-4.04841e-18 -4.92961e-13 0)
(-4.06867e-18 -4.92961e-13 0)
(-4.08763e-18 -4.92961e-13 0)
(-4.10532e-18 -4.92961e-13 0)
(-4.12176e-18 -4.92961e-13 0)
(-4.13699e-18 -4.92961e-13 0)
(-4.15102e-18 -4.92961e-13 0)
(-4.16389e-18 -4.92961e-13 0)
(-4.17562e-18 -4.92961e-13 0)
(-4.18625e-18 -4.92961e-13 0)
(-4.19579e-18 -4.92961e-13 0)
(-4.20427e-18 -4.92961e-13 0)
(-4.21172e-18 -4.92961e-13 0)
(-4.21817e-18 -4.92961e-13 0)
(-4.22363e-18 -4.92961e-13 0)
(-4.22814e-18 -4.92961e-13 0)
(-4.23172e-18 -4.92961e-13 0)
(-4.2344e-18 -4.92961e-13 0)
(-4.23619e-18 -4.92961e-13 0)
(-4.23712e-18 -4.92961e-13 0)
(-4.23721e-18 -4.92961e-13 0)
(-4.2365e-18 -4.92961e-13 0)
(-4.23499e-18 -4.92961e-13 0)
(-7.15363e-20 -4.9296e-13 0)
(-2.13925e-19 -4.9296e-13 0)
(-3.54893e-19 -4.9296e-13 0)
(-4.94344e-19 -4.9296e-13 0)
(-6.32184e-19 -4.9296e-13 0)
(-7.68327e-19 -4.9296e-13 0)
(-9.02692e-19 -4.9296e-13 0)
(-1.0352e-18 -4.9296e-13 0)
(-1.16579e-18 -4.9296e-13 0)
(-1.2944e-18 -4.9296e-13 0)
(-1.42095e-18 -4.9296e-13 0)
(-1.54541e-18 -4.9296e-13 0)
(-1.66771e-18 -4.9296e-13 0)
(-1.78783e-18 -4.9296e-13 0)
(-1.90571e-18 -4.9296e-13 0)
(-2.02132e-18 -4.9296e-13 0)
(-2.13463e-18 -4.9296e-13 0)
(-2.24561e-18 -4.9296e-13 0)
(-2.35425e-18 -4.9296e-13 0)
(-2.46051e-18 -4.9296e-13 0)
(-2.56439e-18 -4.9296e-13 0)
(-2.66588e-18 -4.9296e-13 0)