/*--------------------------------*- C++ -*----------------------------------*\
  =========                 |
  \\      /  F ield         | OpenFOAM: The Open Source CFD Toolbox
   \\    /   O peration     | Website:  https://openfoam.org
    \\  /    A nd           | Version:  8
     \\/     M anipulation  |
\*---------------------------------------------------------------------------*/
FoamFile
{
    version     2.0;
    format      ascii;
    class       volScalarField;
    location    "4000";
    object      p;
}
// * * * * * * * * * * * * * * * * * * * * * * * * * * * * * * * * * * * * * //

dimensions      [1 -1 -2 0 0 0 0];

internalField   nonuniform List<scalar> 
12800
(
353.661
353.661
353.661
353.661
353.661
353.662
353.662
353.662
353.662
353.663
353.663
353.664
353.664
353.664
353.665
353.665
353.666
353.666
353.667
353.668
353.668
353.669
353.67
353.67
353.671
353.672
353.672
353.673
353.674
353.674
353.675
353.676
353.677
353.677
353.678
353.679
353.68
353.68
353.681
353.682
353.683
353.683
353.684
353.685
353.686
353.686
353.687
353.688
353.689
353.689
353.69
353.691
353.691
353.692
353.693
353.694
353.694
353.695
353.696
353.696
353.697
353.698
353.698
353.699
353.7
353.7
353.701
353.701
353.702
353.703
353.703
353.704
353.704
353.705
353.705
353.706
353.706
353.707
353.707
353.708
352.433
352.433
352.433
352.433
352.433
352.434
352.434
352.434
352.434
352.435
352.435
352.436
352.436
352.437
352.437
352.438
352.438
352.439
352.439
352.44
352.441
352.441
352.442
352.443
352.443
352.444
352.445
352.446
352.446
352.447
352.448
352.449
352.45
352.45
352.451
352.452
352.453
352.453
352.454
352.455
352.456
352.457
352.457
352.458
352.459
352.46
352.461
352.461
352.462
352.463
352.464
352.464
352.465
352.466
352.467
352.467
352.468
352.469
352.47
352.47
352.471
352.472
352.472
352.473
352.474
352.474
352.475
352.476
352.476
352.477
352.477
352.478
352.479
352.479
352.48
352.48
352.481
352.481
352.482
352.482
351.203
351.203
351.203
351.203
351.203
351.204
351.204
351.204
351.205
351.205
351.206
351.206
351.207
351.207
351.208
351.208
351.209
351.21
351.21
351.211
351.212
351.212
351.213
351.214
351.215
351.216
351.216
351.217
351.218
351.219
351.22
351.221
351.222
351.222
351.223
351.224
351.225
351.226
351.227
351.228
351.229
351.23
351.23
351.231
351.232
351.233
351.234
351.235
351.236
351.236
351.237
351.238
351.239
351.24
351.241
351.241
351.242
351.243
351.244
351.244
351.245
351.246
351.247
351.247
351.248
351.249
351.249
351.25
351.251
351.251
351.252
351.253
351.253
351.254
351.255
351.255
351.256
351.256
351.257
351.257
349.971
349.971
349.971
349.971
349.971
349.972
349.972
349.972
349.973
349.973
349.974
349.975
349.975
349.976
349.976
349.977
349.978
349.979
349.98
349.98
349.981
349.982
349.983
349.984
349.985
349.986
349.987
349.988
349.989
349.99
349.991
349.992
349.993
349.994
349.995
349.996
349.997
349.998
349.999
350
350.001
350.002
350.003
350.004
350.005
350.006
350.007
350.008
350.009
350.01
350.011
350.012
350.013
350.014
350.015
350.016
350.016
350.017
350.018
350.019
350.02
350.021
350.022
350.022
350.023
350.024
350.025
350.025
350.026
350.027
350.028
350.028
350.029
350.03
350.03
350.031
350.032
350.032
350.033
350.033
348.736
348.736
348.736
348.737
348.737
348.737
348.738
348.738
348.739
348.739
348.74
348.741
348.741
348.742
348.743
348.744
348.745
348.746
348.747
348.748
348.749
348.75
348.751
348.752
348.753
348.755
348.756
348.757
348.758
348.759
348.761
348.762
348.763
348.764
348.766
348.767
348.768
348.769
348.77
348.772
348.773
348.774
348.775
348.777
348.778
348.779
348.78
348.781
348.782
348.784
348.785
348.786
348.787
348.788
348.789
348.79
348.791
348.792
348.793
348.794
348.795
348.796
348.797
348.798
348.799
348.8
348.801
348.802
348.802
348.803
348.804
348.805
348.806
348.806
348.807
348.808
348.809
348.809
348.81
348.811
347.498
347.498
347.499
347.499
347.499
347.5
347.5
347.501
347.502
347.502
347.503
347.504
347.505
347.506
347.507
347.508
347.509
347.511
347.512
347.513
347.514
347.516
347.517
347.519
347.52
347.522
347.523
347.525
347.526
347.528
347.529
347.531
347.532
347.534
347.535
347.537
347.538
347.54
347.541
347.543
347.544
347.546
347.547
347.549
347.55
347.552
347.553
347.555
347.556
347.558
347.559
347.56
347.562
347.563
347.564
347.565
347.567
347.568
347.569
347.57
347.571
347.573
347.574
347.575
347.576
347.577
347.578
347.579
347.58
347.581
347.582
347.583
347.584
347.585
347.585
347.586
347.587
347.588
347.589
347.589
346.257
346.257
346.257
346.257
346.258
346.258
346.259
346.26
346.261
346.262
346.263
346.264
346.265
346.267
346.268
346.269
346.271
346.272
346.274
346.276
346.277
346.279
346.281
346.283
346.285
346.287
346.288
346.29
346.292
346.294
346.296
346.298
346.3
346.302
346.304
346.306
346.308
346.31
346.312
346.314
346.316
346.318
346.32
346.321
346.323
346.325
346.327
346.329
346.33
346.332
346.334
346.335
346.337
346.339
346.34
346.342
346.343
346.345
346.346
346.348
346.349
346.351
346.352
346.353
346.355
346.356
346.357
346.358
346.359
346.361
346.362
346.363
346.364
346.365
346.366
346.367
346.368
346.369
346.369
346.37
345.009
345.01
345.01
345.01
345.011
345.012
345.013
345.014
345.015
345.016
345.018
345.019
345.021
345.023
345.024
345.026
345.028
345.03
345.033
345.035
345.037
345.039
345.042
345.044
345.047
345.049
345.051
345.054
345.057
345.059
345.062
345.064
345.067
345.069
345.072
345.074
345.077
345.079
345.082
345.084
345.087
345.089
345.092
345.094
345.097
345.099
345.101
345.103
345.106
345.108
345.11
345.112
345.114
345.116
345.118
345.12
345.122
345.124
345.126
345.127
345.129
345.131
345.133
345.134
345.136
345.137
345.139
345.14
345.142
345.143
345.144
345.146
345.147
345.148
345.149
345.15
345.151
345.152
345.153
345.154
343.755
343.756
343.756
343.757
343.758
343.759
343.76
343.761
343.763
343.765
343.767
343.769
343.771
343.773
343.776
343.778
343.781
343.784
343.786
343.789
343.792
343.795
343.799
343.802
343.805
343.808
343.812
343.815
343.818
343.822
343.825
343.828
343.832
343.835
343.839
343.842
343.845
343.849
343.852
343.855
343.858
343.861
343.865
343.868
343.871
343.874
343.877
343.88
343.883
343.885
343.888
343.891
343.893
343.896
343.899
343.901
343.903
343.906
343.908
343.91
343.912
343.915
343.917
343.919
343.921
343.922
343.924
343.926
343.928
343.929
343.931
343.932
343.934
343.935
343.937
343.938
343.939
343.941
343.942
343.943
342.492
342.492
342.493
342.494
342.495
342.497
342.498
342.5
342.502
342.505
342.507
342.51
342.513
342.516
342.519
342.523
342.527
342.53
342.534
342.538
342.542
342.546
342.551
342.555
342.559
342.564
342.568
342.573
342.577
342.582
342.586
342.591
342.595
342.6
342.604
342.609
342.613
342.617
342.622
342.626
342.63
342.635
342.639
342.643
342.647
342.651
342.655
342.658
342.662
342.666
342.669
342.673
342.676
342.68
342.683
342.686
342.689
342.692
342.695
342.698
342.701
342.703
342.706
342.708
342.711
342.713
342.715
342.717
342.72
342.722
342.723
342.725
342.727
342.729
342.73
342.732
342.733
342.735
342.736
342.738
341.216
341.217
341.217
341.219
341.22
341.222
341.224
341.227
341.23
341.233
341.237
341.241
341.245
341.249
341.254
341.258
341.263
341.268
341.274
341.279
341.285
341.29
341.296
341.302
341.308
341.314
341.32
341.326
341.332
341.338
341.344
341.35
341.357
341.363
341.369
341.375
341.381
341.387
341.392
341.398
341.404
341.409
341.415
341.42
341.426
341.431
341.436
341.441
341.446
341.451
341.456
341.46
341.465
341.469
341.473
341.477
341.481
341.485
341.489
341.492
341.496
341.499
341.503
341.506
341.509
341.512
341.514
341.517
341.52
341.522
341.524
341.527
341.529
341.531
341.533
341.535
341.536
341.538
341.54
341.541
339.923
339.923
339.924
339.926
339.928
339.931
339.934
339.938
339.942
339.946
339.951
339.957
339.962
339.968
339.975
339.981
339.988
339.995
340.002
340.01
340.017
340.025
340.033
340.041
340.049
340.058
340.066
340.074
340.083
340.091
340.099
340.108
340.116
340.124
340.132
340.141
340.149
340.157
340.165
340.172
340.18
340.188
340.195
340.202
340.21
340.217
340.223
340.23
340.237
340.243
340.249
340.255
340.261
340.267
340.272
340.278
340.283
340.288
340.293
340.297
340.302
340.306
340.31
340.314
340.318
340.322
340.325
340.329
340.332
340.335
340.338
340.34
340.343
340.346
340.348
340.35
340.352
340.354
340.356
340.357
338.605
338.606
338.607
338.61
338.613
338.617
338.621
338.626
338.632
338.638
338.645
338.652
338.66
338.669
338.677
338.686
338.696
338.706
338.716
338.726
338.737
338.748
338.759
338.77
338.781
338.793
338.804
338.816
338.827
338.839
338.85
338.862
338.873
338.885
338.896
338.907
338.918
338.929
338.94
338.951
338.961
338.971
338.981
338.991
339.001
339.01
339.02
339.029
339.037
339.046
339.054
339.062
339.07
339.078
339.085
339.092
339.099
339.105
339.112
339.118
339.124
339.129
339.135
339.14
339.144
339.149
339.153
339.158
339.162
339.165
339.169
339.172
339.175
339.178
339.181
339.183
339.186
339.188
339.19
339.191
337.254
337.255
337.257
337.26
337.265
337.27
337.276
337.283
337.291
337.3
337.31
337.32
337.331
337.343
337.355
337.368
337.381
337.395
337.409
337.423
337.438
337.453
337.469
337.484
337.5
337.516
337.532
337.548
337.564
337.58
337.596
337.612
337.628
337.644
337.66
337.675
337.691
337.706
337.721
337.735
337.75
337.764
337.778
337.791
337.804
337.817
337.83
337.842
337.854
337.865
337.877
337.887
337.898
337.908
337.918
337.927
337.936
337.945
337.953
337.961
337.969
337.976
337.983
337.989
337.995
338.001
338.007
338.012
338.017
338.021
338.026
338.029
338.033
338.037
338.04
338.042
338.045
338.047
338.049
338.051
335.855
335.857
335.86
335.865
335.871
335.878
335.887
335.897
335.908
335.921
335.934
335.949
335.964
335.98
335.998
336.016
336.034
336.054
336.073
336.094
336.115
336.136
336.158
336.18
336.202
336.224
336.247
336.269
336.292
336.314
336.337
336.359
336.382
336.404
336.426
336.447
336.469
336.49
336.51
336.531
336.551
336.57
336.589
336.608
336.626
336.644
336.661
336.678
336.694
336.71
336.725
336.74
336.754
336.768
336.781
336.793
336.805
336.817
336.828
336.838
336.848
336.857
336.866
336.875
336.882
336.89
336.897
336.903
336.909
336.915
336.92
336.924
336.929
336.932
336.936
336.939
336.942
336.944
336.946
336.948
334.391
334.393
334.397
334.404
334.412
334.423
334.435
334.449
334.465
334.482
334.501
334.522
334.544
334.567
334.591
334.616
334.643
334.67
334.698
334.727
334.757
334.787
334.817
334.848
334.88
334.911
334.943
334.975
335.007
335.039
335.07
335.102
335.133
335.165
335.195
335.226
335.256
335.286
335.315
335.343
335.371
335.399
335.425
335.452
335.477
335.502
335.526
335.549
335.571
335.593
335.614
335.634
335.653
335.672
335.689
335.706
335.722
335.738
335.752
335.766
335.779
335.791
335.802
335.813
335.823
335.832
335.841
335.849
335.856
335.863
335.869
335.874
335.879
335.883
335.887
335.89
335.892
335.894
335.896
335.897
332.832
332.836
332.842
332.851
332.863
332.877
332.895
332.915
332.937
332.962
332.988
333.017
333.048
333.08
333.115
333.15
333.188
333.226
333.266
333.307
333.349
333.391
333.435
333.479
333.523
333.568
333.613
333.659
333.704
333.75
333.795
333.84
333.885
333.929
333.973
334.016
334.059
334.101
334.143
334.183
334.223
334.262
334.299
334.336
334.372
334.407
334.44
334.473
334.504
334.534
334.563
334.591
334.618
334.643
334.667
334.69
334.712
334.733
334.752
334.77
334.787
334.803
334.818
334.832
334.844
334.856
334.866
334.876
334.885
334.892
334.899
334.905
334.909
334.913
334.917
334.919
334.921
334.922
334.922
334.921
331.143
331.148
331.156
331.169
331.186
331.206
331.23
331.258
331.289
331.323
331.361
331.401
331.444
331.49
331.538
331.589
331.641
331.696
331.752
331.81
331.869
331.93
331.991
332.054
332.118
332.182
332.246
332.311
332.376
332.441
332.506
332.571
332.635
332.699
332.763
332.825
332.887
332.947
333.007
333.065
333.122
333.178
333.232
333.285
333.336
333.386
333.434
333.48
333.524
333.567
333.608
333.647
333.684
333.719
333.752
333.784
333.814
333.842
333.868
333.892
333.915
333.935
333.954
333.972
333.987
334.002
334.014
334.025
334.035
334.043
334.05
334.055
334.059
334.062
334.064
334.064
334.064
334.062
334.059
334.056
329.272
329.278
329.289
329.307
329.33
329.358
329.391
329.429
329.472
329.52
329.571
329.627
329.687
329.751
329.818
329.888
329.962
330.038
330.117
330.199
330.283
330.369
330.456
330.545
330.636
330.728
330.82
330.913
331.007
331.101
331.195
331.289
331.383
331.476
331.568
331.659
331.749
331.838
331.925
332.01
332.094
332.175
332.255
332.332
332.407
332.479
332.549
332.616
332.68
332.742
332.8
332.856
332.909
332.959
333.006
333.05
333.091
333.13
333.165
333.198
333.227
333.254
333.279
333.3
333.319
333.336
333.35
333.362
333.372
333.379
333.384
333.387
333.388
333.388
333.385
333.381
333.375
333.368
333.359
333.349
327.15
327.158
327.174
327.197
327.227
327.265
327.31
327.361
327.419
327.483
327.553
327.629
327.71
327.797
327.889
327.985
328.087
328.192
328.302
328.415
328.533
328.653
328.776
328.903
329.031
329.162
329.295
329.429
329.565
329.701
329.838
329.976
330.113
330.25
330.386
330.522
330.656
330.788
330.918
331.046
331.172
331.295
331.414
331.53
331.643
331.752
331.856
331.957
332.053
332.145
332.232
332.314
332.392
332.465
332.532
332.596
332.654
332.707
332.756
332.8
332.839
332.874
332.904
332.93
332.952
332.97
332.984
332.994
333
333.003
333.003
332.999
332.993
332.983
332.971
332.956
332.939
332.92
332.898
332.875
324.694
324.704
324.724
324.754
324.794
324.842
324.9
324.966
325.041
325.124
325.216
325.315
325.422
325.536
325.657
325.786
325.921
326.063
326.211
326.365
326.525
326.69
326.861
327.037
327.217
327.401
327.59
327.782
327.977
328.175
328.375
328.578
328.781
328.986
329.191
329.396
329.6
329.803
330.004
330.203
330.398
330.59
330.777
330.96
331.137
331.308
331.473
331.631
331.782
331.925
332.06
332.187
332.306
332.416
332.518
332.612
332.697
332.774
332.842
332.902
332.953
332.997
333.034
333.062
333.084
333.098
333.106
333.107
333.103
333.092
333.076
333.055
333.029
332.998
332.964
332.925
332.883
332.837
332.789
332.738
321.81
321.822
321.847
321.883
321.93
321.989
322.059
322.14
322.232
322.333
322.446
322.568
322.701
322.843
322.995
323.157
323.328
323.509
323.699
323.898
324.106
324.324
324.55
324.785
325.028
325.28
325.539
325.807
326.082
326.365
326.654
326.95
327.251
327.558
327.87
328.186
328.505
328.827
329.149
329.471
329.792
330.11
330.423
330.73
331.029
331.319
331.598
331.865
332.119
332.359
332.584
332.793
332.987
333.165
333.327
333.473
333.603
333.717
333.815
333.897
333.964
334.017
334.055
334.079
334.09
334.089
334.074
334.049
334.012
333.964
333.907
333.841
333.767
333.685
333.596
333.501
333.401
333.296
333.188
333.078
318.409
318.423
318.45
318.49
318.543
318.608
318.686
318.777
318.879
318.993
319.12
319.258
319.408
319.571
319.745
319.931
320.129
320.34
320.563
320.799
321.047
321.308
321.583
321.871
322.173
322.489
322.82
323.165
323.526
323.903
324.296
324.705
325.132
325.576
326.038
326.518
327.017
327.534
328.071
328.626
329.2
329.792
330.417
331.06
331.697
332.319
332.92
333.496
334.045
334.565
335.054
335.509
335.931
336.316
336.665
336.977
337.25
337.485
337.681
337.838
337.956
338.036
338.078
338.082
338.051
337.984
337.883
337.749
337.585
337.391
337.169
336.923
336.652
336.361
336.05
335.723
335.381
335.027
334.663
334.291
314.436
314.449
314.476
314.516
314.569
314.634
314.711
314.801
314.903
315.017
315.143
315.281
315.432
315.594
315.769
315.956
316.156
316.368
316.594
316.833
317.086
317.353
317.635
317.932
318.245
318.576
318.924
319.291
319.678
320.086
320.518
320.974
321.457
321.968
322.512
323.09
323.707
324.366
325.072
325.831
326.648
327.715
330.785
334.738
338.805
342.795
346.648
350.336
353.839
357.141
360.226
363.08
365.692
368.051
370.148
371.977
373.531
374.807
375.804
376.521
376.958
377.117
377
376.608
375.943
375.01
373.811
372.353
370.64
368.68
366.48
364.047
361.389
358.514
355.431
352.149
348.677
345.023
341.198
337.209
309.893
309.905
309.929
309.964
310.01
310.067
310.135
310.213
310.302
310.401
310.511
310.63
310.759
310.898
311.047
311.206
311.374
311.552
311.74
311.937
312.144
312.36
312.586
312.821
313.066
313.32
313.583
313.855
314.136
314.425
314.722
315.027
315.338
315.656
315.979
316.307
316.637
316.968
317.297
317.623
317.955
322.309
330.681
338.381
345.362
351.679
357.388
362.534
367.16
371.298
374.979
378.226
381.062
383.505
385.57
387.272
388.621
389.628
390.303
390.652
390.683
390.402
389.814
388.924
387.736
386.251
384.472
382.401
380.039
377.386
374.44
371.202
367.668
363.837
359.703
355.263
350.51
345.437
340.036
334.297
304.851
304.86
304.879
304.906
304.942
304.987
305.04
305.1
305.169
305.245
305.329
305.42
305.518
305.623
305.734
305.852
305.976
306.106
306.242
306.383
306.529
306.68
306.836
306.996
307.16
307.328
307.499
307.672
307.848
308.026
308.205
308.384
308.564
308.743
308.92
309.096
309.269
309.438
309.603
309.763
310.047
315.966
322.838
329.33
335.348
340.9
345.998
350.656
354.89
358.712
362.137
365.179
367.848
370.159
372.121
373.744
375.04
376.016
376.682
377.044
377.111
376.89
376.387
375.608
374.56
373.246
371.672
369.842
367.762
365.435
362.865
360.056
357.013
353.738
350.237
346.512
342.569
338.411
334.044
329.472
299.415
299.422
299.435
299.455
299.48
299.512
299.549
299.592
299.64
299.693
299.751
299.814
299.881
299.952
300.027
300.106
300.188
300.274
300.362
300.453
300.546
300.641
300.738
300.836
300.935
301.035
301.135
301.234
301.334
301.432
301.529
301.625
301.718
301.809
301.897
301.981
302.062
302.138
302.21
302.278
302.402
305.081
310.554
316.028
321.151
325.913
330.319
334.379
338.099
341.488
344.554
347.304
349.748
351.892
353.745
355.313
356.605
357.628
358.39
358.896
359.154
359.171
358.953
358.508
357.842
356.96
355.869
354.575
353.085
351.404
349.54
347.496
345.282
342.901
340.362
337.67
334.832
331.855
328.747
325.514
293.7
293.705
293.713
293.726
293.743
293.763
293.787
293.815
293.846
293.879
293.916
293.956
293.998
294.042
294.089
294.137
294.187
294.238
294.29
294.344
294.398
294.452
294.507
294.561
294.615
294.668
294.721
294.772
294.821
294.869
294.915
294.958
294.998
295.036
295.07
295.1
295.127
295.149
295.166
295.179
295.189
295.721
299.523
304.133
308.507
312.598
316.408
319.941
323.203
326.2
328.936
331.418
333.65
335.639
337.39
338.909
340.202
341.274
342.131
342.78
343.226
343.474
343.531
343.402
343.093
342.61
341.958
341.143
340.17
339.044
337.772
336.359
334.81
333.131
331.327
329.404
327.366
325.219
322.969
320.621
287.803
287.805
287.81
287.818
287.828
287.84
287.854
287.871
287.889
287.909
287.93
287.953
287.977
288.003
288.029
288.056
288.084
288.112
288.14
288.169
288.198
288.226
288.254
288.281
288.308
288.334
288.358
288.382
288.404
288.424
288.443
288.46
288.475
288.488
288.498
288.506
288.511
288.514
288.514
288.512
288.506
288.545
290.374
294.254
298.059
301.639
304.991
308.12
311.028
313.72
316.199
318.47
320.537
322.403
324.074
325.555
326.848
327.96
328.894
329.655
330.249
330.679
330.95
331.067
331.035
330.858
330.541
330.089
329.505
328.795
327.963
327.013
325.95
324.778
323.501
322.123
320.649
319.083
317.429
315.69
281.795
281.797
281.799
281.803
281.809
281.815
281.823
281.832
281.842
281.852
281.863
281.875
281.888
281.901
281.914
281.928
281.942
281.955
281.969
281.983
281.996
282.009
282.021
282.033
282.044
282.055
282.064
282.073
282.081
282.087
282.093
282.097
282.1
282.102
282.103
282.102
282.1
282.097
282.092
282.086
282.079
282.074
282.577
285.767
289.185
292.419
295.462
298.316
300.985
303.47
305.777
307.908
309.866
311.656
313.281
314.744
316.049
317.2
318.201
319.055
319.766
320.338
320.776
321.082
321.26
321.315
321.251
321.07
320.777
320.375
319.868
319.259
318.553
317.752
316.86
315.881
314.818
313.673
312.452
311.156
275.728
275.728
275.73
275.732
275.734
275.737
275.741
275.745
275.749
275.754
275.759
275.764
275.769
275.774
275.78
275.785
275.791
275.796
275.801
275.805
275.809
275.813
275.817
275.82
275.822
275.824
275.825
275.825
275.825
275.824
275.822
275.819
275.815
275.811
275.806
275.8
275.793
275.785
275.777
275.767
275.757
275.747
275.844
278.186
281.336
284.345
287.188
289.869
292.388
294.749
296.954
299.006
300.908
302.663
304.274
305.744
307.076
308.274
309.34
310.278
311.091
311.781
312.354
312.81
313.155
313.39
313.52
313.547
313.474
313.305
313.043
312.69
312.249
311.724
311.118
310.432
309.67
308.836
307.93
306.957
269.633
269.633
269.633
269.634
269.635
269.635
269.636
269.638
269.639
269.64
269.641
269.642
269.643
269.644
269.645
269.646
269.646
269.646
269.646
269.646
269.645
269.643
269.642
269.64
269.637
269.634
269.63
269.626
269.621
269.615
269.609
269.602
269.594
269.586
269.576
269.566
269.555
269.543
269.53
269.515
269.5
269.483
269.493
270.867
273.864
276.774
279.533
282.142
284.602
286.918
289.091
291.125
293.023
294.786
296.42
297.925
299.305
300.563
301.701
302.723
303.632
304.43
305.121
305.706
306.189
306.573
306.86
307.054
307.156
307.17
307.099
306.944
306.708
306.395
306.006
305.543
305.01
304.409
303.741
303.01
263.529
263.529
263.529
263.529
263.528
263.528
263.528
263.527
263.526
263.526
263.525
263.524
263.522
263.521
263.519
263.517
263.515
263.513
263.51
263.507
263.504
263.5
263.497
263.492
263.488
263.483
263.477
263.472
263.465
263.459
263.452
263.445
263.437
263.429
263.42
263.411
263.402
263.392
263.382
263.372
263.361
263.35
263.348
263.941
266.781
269.649
272.377
274.964
277.412
279.724
281.904
283.953
285.875
287.672
289.348
290.904
292.344
293.671
294.886
295.993
296.994
297.892
298.689
299.389
299.993
300.505
300.926
301.259
301.507
301.672
301.756
301.762
301.692
301.548
301.333
301.049
300.697
300.28
299.8
299.259
257.428
257.428
257.427
257.427
257.426
257.425
257.424
257.422
257.421
257.419
257.417
257.415
257.412
257.409
257.407
257.403
257.4
257.396
257.393
257.388
257.384
257.379
257.375
257.369
257.364
257.359
257.353
257.347
257.34
257.334
257.327
257.321
257.314
257.307
257.3
257.293
257.285
257.278
257.271
257.264
257.257
257.251
257.246
257.455
260.014
262.863
265.586
268.175
270.635
272.966
275.172
277.255
279.217
281.062
282.791
284.408
285.915
287.314
288.608
289.798
290.889
291.882
292.779
293.583
294.297
294.922
295.462
295.917
296.291
296.586
296.803
296.946
297.016
297.015
296.946
296.81
296.61
296.347
296.023
295.64
251.335
251.335
251.335
251.334
251.333
251.331
251.33
251.328
251.326
251.323
251.321
251.318
251.315
251.311
251.308
251.304
251.3
251.295
251.291
251.286
251.281
251.276
251.27
251.264
251.258
251.252
251.246
251.239
251.233
251.226
251.218
251.211
251.204
251.196
251.188
251.181
251.173
251.165
251.156
251.148
251.14
251.132
251.124
251.187
253.235
256.101
258.858
261.487
263.99
266.37
268.628
270.768
272.791
274.701
276.499
278.188
279.771
281.25
282.626
283.904
285.084
286.17
287.163
288.067
288.882
289.612
290.258
290.824
291.31
291.719
292.054
292.315
292.506
292.628
292.684
292.675
292.603
292.47
292.278
292.029
245.255
245.255
245.254
245.253
245.252
245.25
245.248
245.246
245.244
245.241
245.238
245.235
245.231
245.228
245.224
245.219
245.215
245.21
245.205
245.2
245.194
245.189
245.183
245.176
245.17
245.163
245.156
245.149
245.141
245.134
245.126
245.117
245.109
245.1
245.091
245.081
245.071
245.061
245.05
245.038
245.026
245.013
245
245.01
246.297
249.208
252.044
254.751
257.333
259.791
262.128
264.347
266.451
268.441
270.322
272.094
273.762
275.326
276.79
278.156
279.427
280.603
281.689
282.686
283.597
284.423
285.167
285.83
286.416
286.926
287.362
287.726
288.02
288.247
288.407
288.503
288.537
288.511
288.428
288.289
239.188
239.187
239.187
239.186
239.184
239.183
239.181
239.179
239.176
239.173
239.17
239.167
239.163
239.159
239.155
239.15
239.146
239.141
239.136
239.13
239.125
239.119
239.113
239.107
239.1
239.094
239.087
239.08
239.073
239.066
239.058
239.051
239.043
239.035
239.027
239.019
239.011
239.003
238.995
238.986
238.978
238.97
238.962
238.959
239.53
242.419
245.332
248.119
250.78
253.318
255.736
258.035
260.22
262.292
264.255
266.11
267.86
269.508
271.056
272.506
273.861
275.124
276.295
277.378
278.375
279.287
280.118
280.868
281.541
282.138
282.661
283.112
283.494
283.808
284.055
284.239
284.362
284.424
284.43
284.387
233.135
233.135
233.134
233.133
233.132
233.13
233.128
233.126
233.123
233.12
233.117
233.114
233.11
233.106
233.101
233.097
233.092
233.087
233.082
233.077
233.071
233.065
233.059
233.053
233.047
233.04
233.033
233.027
233.02
233.013
233.006
232.998
232.991
232.984
232.976
232.969
232.962
232.955
232.947
232.94
232.933
232.927
232.92
232.915
233.103
235.787
238.762
241.617
244.349
246.959
249.451
251.826
254.087
256.236
258.277
260.21
262.039
263.766
265.394
266.923
268.358
269.699
270.95
272.111
273.187
274.177
275.085
275.912
276.661
277.333
277.931
278.456
278.91
279.296
279.614
279.868
280.059
280.191
280.27
280.313
227.098
227.098
227.097
227.096
227.094
227.093
227.091
227.088
227.086
227.083
227.079
227.076
227.072
227.068
227.063
227.059
227.054
227.049
227.043
227.038
227.032
227.026
227.019
227.013
227.006
227
226.993
226.985
226.978
226.97
226.963
226.955
226.947
226.939
226.93
226.922
226.913
226.905
226.896
226.887
226.878
226.869
226.86
226.851
226.895
229.039
232.085
235.028
237.847
240.544
243.123
245.585
247.932
250.168
252.294
254.313
256.227
258.038
259.749
261.361
262.878
264.301
265.633
266.875
268.03
269.1
270.086
270.992
271.819
272.569
273.244
273.846
274.377
274.84
275.236
275.569
275.843
276.063
276.246
276.434
221.076
221.076
221.075
221.074
221.073
221.071
221.069
221.066
221.063
221.06
221.057
221.053
221.049
221.045
221.041
221.036
221.031
221.026
221.02
221.014
221.008
221.002
220.996
220.989
220.982
220.975
220.968
220.96
220.952
220.944
220.936
220.927
220.918
220.909
220.9
220.89
220.88
220.87
220.859
220.848
220.836
220.824
220.812
220.798
220.798
222.041
225.172
228.237
231.175
233.986
236.675
239.243
241.694
244.03
246.254
248.368
250.375
252.277
254.077
255.778
257.38
258.887
260.302
261.625
262.86
264.008
265.072
266.054
266.956
267.781
268.529
269.204
269.808
270.344
270.814
271.224
271.579
271.897
272.216
272.617
215.07
215.07
215.069
215.068
215.067
215.065
215.063
215.06
215.057
215.054
215.051
215.047
215.043
215.039
215.034
215.03
215.025
215.019
215.014
215.008
215.002
214.996
214.989
214.983
214.976
214.969
214.962
214.954
214.947
214.939
214.931
214.923
214.915
214.907
214.899
214.89
214.881
214.873
214.864
214.855
214.847
214.838
214.829
214.821
214.816
215.271
218.374
221.544
224.586
227.499
230.288
232.954
235.5
237.93
240.245
242.45
244.545
246.534
248.419
250.203
251.887
253.475
254.969
256.37
257.682
258.906
260.045
261.101
262.077
262.974
263.796
264.544
265.223
265.835
266.387
266.886
267.35
267.817
268.361
269.066
209.08
209.08
209.079
209.078
209.076
209.075
209.073
209.07
209.067
209.064
209.061
209.057
209.053
209.049
209.044
209.039
209.034
209.029
209.024
209.018
209.012
209.006
208.999
208.993
208.986
208.979
208.972
208.965
208.957
208.95
208.942
208.934
208.926
208.918
208.91
208.902
208.894
208.886
208.878
208.87
208.862
208.854
208.846
208.838
208.831
208.95
211.739
214.981
218.104
221.1
223.972
226.721
229.35
231.862
234.259
236.543
238.718
240.785
242.748
244.607
246.367
248.029
249.595
251.069
252.452
253.747
254.957
256.084
257.131
258.101
258.998
259.825
260.588
261.294
261.954
262.587
263.233
263.961
264.845
265.888
203.106
203.106
203.105
203.104
203.102
203.101
203.098
203.096
203.093
203.09
203.087
203.083
203.079
203.075
203.07
203.065
203.06
203.055
203.049
203.044
203.037
203.031
203.025
203.018
203.011
203.004
202.997
202.989
202.982
202.974
202.966
202.957
202.949
202.94
202.932
202.923
202.914
202.904
202.895
202.885
202.876
202.866
202.856
202.845
202.835
202.853
204.861
208.192
211.423
214.524
217.497
220.344
223.068
225.671
228.156
230.524
232.78
234.925
236.961
238.891
240.718
242.444
244.071
245.602
247.04
248.387
249.646
250.821
251.914
252.93
253.875
254.753
255.576
256.356
257.12
257.912
258.798
259.843
261.044
262.328
197.148
197.148
197.147
197.146
197.145
197.143
197.141
197.138
197.135
197.132
197.129
197.125
197.121
197.117
197.112
197.107
197.102
197.097
197.091
197.086
197.08
197.073
197.067
197.06
197.053
197.046
197.039
197.031
197.023
197.015
197.007
196.998
196.99
196.981
196.972
196.962
196.952
196.942
196.932
196.921
196.91
196.898
196.886
196.874
196.861
196.859
197.811
201.216
204.587
207.82
210.918
213.884
216.719
219.428
222.013
224.476
226.82
229.049
231.165
233.169
235.066
236.858
238.547
240.136
241.629
243.029
244.34
245.565
246.712
247.785
248.796
249.757
250.688
251.623
252.612
253.72
254.993
256.411
257.898
259.379
191.207
191.206
191.205
191.204
191.203
191.201
191.199
191.196
191.194
191.19
191.187
191.183
191.179
191.175
191.17
191.166
191.161
191.155
191.15
191.144
191.138
191.132
191.126
191.119
191.113
191.106
191.099
191.092
191.084
191.077
191.069
191.062
191.054
191.046
191.038
191.03
191.022
191.014
191.005
190.997
190.989
190.981
190.973
190.965
190.957
190.952
191.257
194.534
198.013
201.358
204.566
207.638
210.577
213.386
216.068
218.624
221.058
223.371
225.568
227.65
229.62
231.482
233.239
234.894
236.453
237.92
239.301
240.604
241.841
243.025
244.177
245.325
246.512
247.789
249.208
250.783
252.47
254.197
255.894
257.509
185.281
185.281
185.28
185.279
185.277
185.275
185.273
185.271
185.268
185.265
185.261
185.257
185.253
185.249
185.244
185.24
185.235
185.229
185.224
185.218
185.212
185.206
185.2
185.194
185.187
185.18
185.173
185.166
185.159
185.152
185.145
185.138
185.13
185.123
185.116
185.108
185.101
185.093
185.086
185.079
185.072
185.065
185.058
185.052
185.046
185.04
185.124
187.875
191.481
194.968
198.315
201.524
204.597
207.534
210.338
213.01
215.554
217.971
220.264
222.436
224.489
226.427
228.255
229.978
231.604
233.14
234.599
235.997
237.357
238.707
240.086
241.541
243.116
244.833
246.675
248.586
250.502
252.369
254.144
255.793
179.372
179.372
179.371
179.37
179.368
179.366
179.364
179.361
179.358
179.355
179.351
179.347
179.343
179.339
179.334
179.329
179.324
179.318
179.312
179.306
179.3
179.294
179.287
179.281
179.274
179.267
179.26
179.252
179.245
179.237
179.23
179.222
179.214
179.206
179.198
179.19
179.181
179.173
179.164
179.156