/*--------------------------------*- C++ -*----------------------------------*\
  =========                 |
  \\      /  F ield         | OpenFOAM: The Open Source CFD Toolbox
   \\    /   O peration     | Website:  https://openfoam.org
    \\  /    A nd           | Version:  8
     \\/     M anipulation  |
\*---------------------------------------------------------------------------*/
FoamFile
{
    version     2.0;
    format      ascii;
    class       surfaceScalarField;
    location    "4000";
    object      phia;
}
// * * * * * * * * * * * * * * * * * * * * * * * * * * * * * * * * * * * * * //

dimensions      [0 3 -1 0 0 0 0];

internalField   nonuniform List<scalar> 
25360
(
-3.51256e-09
3.5126e-09
-6.98894e-09
3.47643e-09
-1.04242e-08
3.43534e-09
-1.38138e-08
3.38964e-09
-1.71534e-08
3.33961e-09
-2.04389e-08
3.28555e-09
-2.36666e-08
3.22776e-09
-2.68331e-08
3.16651e-09
-2.99352e-08
3.1021e-09
-3.29699e-08
3.03481e-09
-3.59348e-08
2.9649e-09
-3.88274e-08
2.89265e-09
-4.16457e-08
2.8183e-09
-4.43878e-08
2.74212e-09
-4.70521e-08
2.66434e-09
-4.96372e-08
2.58519e-09
-5.21421e-08
2.50491e-09
-5.45658e-08
2.4237e-09
-5.69075e-08
2.34178e-09
-5.91668e-08
2.25933e-09
-6.13433e-08
2.17656e-09
-6.34369e-08
2.09363e-09
-6.54476e-08
2.01071e-09
-6.73755e-08
1.92797e-09
-6.9221e-08
1.84555e-09
-7.09846e-08
1.7636e-09
-7.26668e-08
1.68224e-09
-7.42684e-08
1.60161e-09
-7.57902e-08
1.5218e-09
-7.72331e-08
1.44294e-09
-7.85982e-08
1.36511e-09
-7.98865e-08
1.28841e-09
-8.10994e-08
1.21292e-09
-8.22381e-08
1.13871e-09
-8.33039e-08
1.06586e-09
-8.42983e-08
9.94409e-10
-8.52227e-08
9.24425e-10
-8.60786e-08
8.55952e-10
-8.68676e-08
7.89032e-10
-8.75913e-08
7.23699e-10
-8.82512e-08
6.59985e-10
-8.88491e-08
5.97912e-10
-8.93866e-08
5.37502e-10
-8.98653e-08
4.78769e-10
-9.0287e-08
4.21724e-10
-9.06534e-08
3.66374e-10
-9.09661e-08
3.1272e-10
-9.12268e-08
2.60763e-10
-9.14373e-08
2.10498e-10
-9.15992e-08
1.61916e-10
-9.17142e-08
1.15009e-10
-9.17839e-08
6.97617e-11
-9.181e-08
2.61598e-11
-9.17942e-08
-1.5815e-11
-9.1738e-08
-5.61828e-11
-9.1643e-08
-9.49654e-11
-9.15108e-08
-1.32187e-10
-9.13429e-08
-1.67871e-10
-9.11408e-08
-2.02046e-10
-9.0906e-08
-2.3474e-10
-9.064e-08
-2.6598e-10
-9.03442e-08
-2.95797e-10
-9.002e-08
-3.24221e-10
-8.96686e-08
-3.51284e-10
-8.92916e-08
-3.77019e-10
-8.88901e-08
-4.01456e-10
-8.84655e-08
-4.24629e-10
-8.80189e-08
-4.46572e-10
-8.75515e-08
-4.67317e-10
-8.70646e-08
-4.86897e-10
-8.65592e-08
-5.05346e-10
-8.60365e-08
-5.22698e-10
-8.54975e-08
-5.38985e-10
-8.49433e-08
-5.5424e-10
-8.43747e-08
-5.68496e-10
-8.37929e-08
-5.81786e-10
-8.31988e-08
-5.94141e-10
-8.25931e-08
-6.05594e-10
-8.1977e-08
-6.16175e-10
-6.25916e-10
-8.1351e-08
-3.74409e-09
7.25669e-09
-7.44944e-09
7.18178e-09
-1.11106e-08
7.09653e-09
-1.47226e-08
7.00157e-09
-1.82805e-08
6.89753e-09
-2.17799e-08
6.78501e-09
-2.52168e-08
6.66464e-09
-2.85873e-08
6.53703e-09
-3.1888e-08
6.40277e-09
-3.51156e-08
6.26245e-09
-3.82674e-08
6.11664e-09
-4.13406e-08
5.9659e-09
-4.43331e-08
5.81077e-09
-4.72428e-08
5.65179e-09
-5.00679e-08
5.48946e-09
-5.2807e-08
5.32428e-09
-5.54588e-08
5.15672e-09
-5.80223e-08
4.98723e-09
-6.04968e-08
4.81625e-09
-6.28816e-08
4.64419e-09
-6.51765e-08
4.47145e-09
-6.73813e-08
4.2984e-09
-6.9496e-08
4.1254e-09
-7.15208e-08
3.95279e-09
-7.34561e-08
3.78087e-09
-7.53025e-08
3.60995e-09
-7.70605e-08
3.44031e-09
-7.87311e-08
3.27219e-09
-8.03152e-08
3.10585e-09
-8.18137e-08
2.9415e-09
-8.3228e-08
2.77935e-09
-8.45591e-08
2.61959e-09
-8.58086e-08
2.46238e-09
-8.69778e-08
2.30789e-09
-8.80682e-08
2.15625e-09
-8.90814e-08
2.00759e-09
-9.0019e-08
1.86203e-09
-9.08827e-08
1.71966e-09
-9.16742e-08
1.58056e-09
-9.23953e-08
1.44482e-09
-9.30478e-08
1.31249e-09
-9.36335e-08
1.18362e-09
-9.41543e-08
1.05825e-09
-9.46119e-08
9.36421e-10
-9.50083e-08
8.18146e-10
-9.53454e-08
7.0344e-10
-9.5625e-08
5.92307e-10
-9.5849e-08
4.84744e-10
-9.60192e-08
3.8074e-10
-9.61376e-08
2.80279e-10
-9.62059e-08
1.83337e-10
-9.6226e-08
8.98856e-11
-9.61998e-08
-1.08683e-13
-9.61289e-08
-8.6685e-11
-9.60152e-08
-1.69887e-10
-9.58604e-08
-2.4976e-10
-9.56662e-08
-3.26357e-10
-9.54344e-08
-3.99731e-10
-9.51665e-08
-4.69939e-10
-9.48642e-08
-5.3704e-10
-9.45291e-08
-6.01096e-10
-9.41627e-08
-6.62171e-10
-9.37666e-08
-7.2033e-10
-9.33422e-08
-7.7564e-10
-9.28911e-08
-8.28169e-10
-9.24145e-08
-8.77986e-10
-9.1914e-08
-9.2516e-10
-9.13908e-08
-9.69761e-10
-9.08463e-08
-1.01186e-09
-9.02816e-08
-1.05153e-09
-8.96982e-08
-1.08884e-09
-8.9097e-08
-1.12386e-09
-8.84793e-08
-1.15665e-09
-8.78463e-08
-1.1873e-09
-8.71989e-08
-1.21587e-09
-8.65382e-08
-1.24243e-09
-8.58653e-08
-1.26704e-09
-8.51812e-08
-1.28977e-09
-8.44866e-08
-1.3107e-09
-1.32987e-09
-8.37827e-08
-4.23038e-09
1.14871e-08
-8.4166e-09
1.1368e-08
-1.25522e-08
1.12321e-08
-1.6631e-08
1.10804e-08
-2.06474e-08
1.09139e-08
-2.4596e-08
1.07336e-08
-2.8472e-08
1.05406e-08
-3.22707e-08
1.03358e-08
-3.59881e-08
1.01201e-08
-3.96202e-08
9.89462e-09
-4.31638e-08
9.66021e-09
-4.66157e-08
9.41779e-09
-4.99732e-08
9.16826e-09
-5.32339e-08
8.91248e-09
-5.63957e-08
8.65127e-09
-5.94569e-08
8.38546e-09
-6.24159e-08
8.1158e-09
-6.52718e-08
7.84304e-09
-6.80234e-08
7.56789e-09
-7.06702e-08
7.29103e-09
-7.32119e-08
7.01311e-09
-7.56482e-08
6.73473e-09
-7.79793e-08
6.45647e-09
-8.02054e-08
6.17889e-09
-8.2327e-08
5.90249e-09
-8.43448e-08
5.62776e-09
-8.62597e-08
5.35515e-09
-8.80726e-08
5.08509e-09
-8.97847e-08
4.81796e-09
-9.13973e-08
4.55412e-09
-9.29118e-08
4.2939e-09
-9.43299e-08
4.03762e-09
-9.5653e-08
3.78555e-09
-9.68831e-08
3.53794e-09
-9.80219e-08
3.29502e-09
-9.90713e-08
3.057e-09
-1.00033e-07
2.82404e-09
-1.0091e-07
2.59632e-09
-1.01703e-07
2.37397e-09
-1.02416e-07
2.1571e-09
-1.03049e-07
1.94582e-09
-1.03606e-07
1.7402e-09
-1.04088e-07
1.54031e-09
-1.04497e-07
1.3462e-09
-1.04837e-07
1.15789e-09
-1.05109e-07
9.75411e-10
-1.05316e-07
7.9876e-10
-1.05459e-07
6.2793e-10
-1.05541e-07
4.62903e-10
-1.05564e-07
3.03646e-10
-1.05531e-07
1.5012e-10
-1.05443e-07
2.27554e-12
-1.05304e-07
-1.39946e-10
-1.05114e-07
-2.76611e-10
-1.04876e-07
-4.07792e-10
-1.04592e-07
-5.33568e-10
-1.04264e-07
-6.54025e-10
-1.03895e-07
-7.69253e-10
-1.03485e-07
-8.79348e-10
-1.03038e-07
-9.84409e-10
-1.02555e-07
-1.08454e-09
-1.02037e-07
-1.17984e-09
-1.01487e-07
-1.27043e-09
-1.00906e-07
-1.35641e-09
-1.00296e-07
-1.4379e-09
-9.96592e-08
-1.51501e-09
-9.89965e-08
-1.58786e-09
-9.83098e-08
-1.65656e-09
-9.76004e-08
-1.72123e-09
-9.68699e-08
-1.78198e-09
-9.61198e-08
-1.83894e-09
-9.53515e-08
-1.89221e-09
-9.45662e-08
-1.94192e-09
-9.37653e-08
-1.98818e-09
-9.29501e-08
-2.0311e-09
-9.21217e-08
-2.0708e-09
-9.12814e-08
-2.10739e-09
-9.04302e-08
-2.14097e-09
-8.95692e-08
-2.17166e-09
-2.19957e-09
-8.86995e-08
-5.02082e-09
1.65079e-08
-9.98864e-09
1.63358e-08
-1.48952e-08
1.61387e-08
-1.97327e-08
1.59179e-08
-2.4494e-08
1.56752e-08
-2.91722e-08
1.54119e-08
-3.37612e-08
1.51295e-08
-3.8255e-08
1.48296e-08
-4.26486e-08
1.45136e-08
-4.69369e-08
1.4183e-08
-5.11157e-08
1.3839e-08
-5.51812e-08
1.34832e-08
-5.91298e-08
1.31168e-08
-6.29585e-08
1.27412e-08
-6.66647e-08
1.23575e-08
-7.02463e-08
1.1967e-08
-7.37014e-08
1.15709e-08
-7.70285e-08
1.11702e-08
-8.02265e-08
1.0766e-08
-8.32948e-08
1.03593e-08
-8.62328e-08
9.95112e-09
-8.90404e-08
9.54235e-09
-9.17178e-08
9.13386e-09
-9.42654e-08
8.72647e-09
-9.66839e-08
8.32094e-09
-9.89741e-08
7.91799e-09
-1.01137e-07
7.5183e-09
-1.03175e-07
7.12249e-09
-1.05088e-07
6.73115e-09
-1.06879e-07
6.34482e-09
-1.08549e-07
5.96399e-09
-1.101e-07
5.58911e-09
-1.11535e-07
5.22059e-09
-1.12856e-07
4.85882e-09
-1.14065e-07
4.50412e-09
-1.15165e-07
4.15679e-09
-1.16158e-07
3.81711e-09
-1.17047e-07
3.4853e-09
-1.17835e-07
3.16156e-09
-1.18524e-07
2.84606e-09
-1.19117e-07
2.53895e-09
-1.19617e-07
2.24034e-09
-1.20027e-07
1.95032e-09
-1.2035e-07
1.66895e-09
-1.20588e-07
1.39628e-09
-1.20745e-07
1.13233e-09
-1.20823e-07
8.77093e-10
-1.20826e-07
6.30559e-10
-1.20756e-07
3.9269e-10
-1.20615e-07
1.63435e-10
-1.20408e-07
-5.72709e-11
-1.20136e-07
-2.69509e-10
-1.19803e-07
-4.7337e-10
-1.1941e-07
-6.6896e-10
-1.18962e-07
-8.56391e-10
-1.1846e-07
-1.03579e-09
-1.17906e-07
-1.20728e-09
-1.17305e-07
-1.37102e-09
-1.16657e-07
-1.52714e-09
-1.15965e-07
-1.6758e-09
-1.15233e-07
-1.81715e-09
-1.14461e-07
-1.95137e-09
-1.13653e-07
-2.07861e-09
-1.1281e-07
-2.19905e-09
-1.11936e-07
-2.31285e-09
-1.1103e-07
-2.4202e-09
-1.10097e-07
-2.52126e-09
-1.09137e-07
-2.61622e-09
-1.08153e-07
-2.70525e-09
-1.07147e-07
-2.78853e-09
-1.06119e-07
-2.86623e-09
-1.05073e-07
-2.93853e-09
-1.04009e-07
-3.00562e-09
-1.0293e-07
-3.06765e-09
-1.01836e-07
-3.1248e-09
-1.0073e-07
-3.17725e-09
-9.9612e-08
-3.22516e-09
-9.84842e-08
-3.2687e-09
-9.73479e-08
-3.30803e-09
-3.34331e-09
-9.62041e-08
-6.19723e-09
2.27051e-08
-1.23282e-08
2.24668e-08
-1.8382e-08
2.21925e-08
-2.43483e-08
2.18843e-08
-3.02175e-08
2.15444e-08
-3.59806e-08
2.1175e-08
-4.16294e-08
2.07783e-08
-4.71561e-08
2.03563e-08
-5.25537e-08
1.99113e-08
-5.7816e-08
1.94452e-08
-6.29371e-08
1.89602e-08
-6.79119e-08
1.84581e-08
-7.27359e-08
1.79409e-08
-7.74052e-08
1.74104e-08
-8.19162e-08
1.68685e-08
-8.62661e-08
1.6317e-08
-9.04526e-08
1.57574e-08
-9.44738e-08
1.51914e-08
-9.83283e-08
1.46205e-08
-1.02015e-07
1.40461e-08
-1.05534e-07
1.34698e-08
-1.08884e-07
1.28928e-08
-1.12067e-07
1.23163e-08
-1.15082e-07
1.17415e-08
-1.1793e-07
1.11696e-08
-1.20614e-07
1.06015e-08
-1.23134e-07
1.00383e-08
-1.25492e-07
9.48084e-09
-1.27691e-07
8.92995e-09
-1.29733e-07
8.38642e-09
-1.3162e-07
7.85095e-09
-1.33355e-07
7.32419e-09
-1.34941e-07
6.80673e-09
-1.36381e-07
6.2991e-09
-1.37679e-07
5.80178e-09
-1.38837e-07
5.31519e-09
-1.3986e-07
4.83972e-09
-1.4075e-07
4.37568e-09
-1.41512e-07
3.92336e-09
-1.42149e-07
3.48299e-09
-1.42665e-07
3.05477e-09
-1.43063e-07
2.63886e-09
-1.43348e-07
2.23538e-09
-1.43524e-07
1.84441e-09
-1.43593e-07
1.46599e-09
-1.43561e-07
1.10016e-09
-1.43431e-07
7.46908e-10
-1.43207e-07
4.06191e-10
-1.42892e-07
7.79537e-11
-1.42491e-07
-2.37888e-10
-1.42006e-07
-5.4144e-10
-1.41443e-07
-8.32824e-10
-1.40804e-07
-1.11218e-09
-1.40094e-07
-1.37968e-09
-1.39315e-07
-1.63548e-09
-1.38471e-07
-1.87978e-09
-1.37565e-07
-2.11277e-09
-1.36601e-07
-2.33467e-09
-1.35583e-07
-2.5457e-09
-1.34513e-07
-2.74607e-09
-1.33394e-07
-2.93604e-09
-1.32229e-07
-3.11583e-09
-1.31022e-07
-3.28571e-09
-1.29775e-07
-3.44591e-09
-1.28491e-07
-3.59669e-09
-1.27173e-07
-3.73831e-09
-1.25824e-07
-3.87103e-09
-1.24445e-07
-3.99511e-09
-1.23039e-07
-4.11081e-09
-1.21609e-07
-4.21838e-09
-1.20157e-07
-4.3181e-09
-1.18686e-07
-4.41021e-09
-1.17196e-07
-4.49497e-09
-1.15691e-07
-4.57264e-09
-1.14173e-07
-4.64346e-09
-1.12642e-07
-4.70769e-09
-1.11102e-07
-4.76558e-09
-1.09553e-07
-4.81735e-09
-1.07998e-07
-4.86326e-09
-4.90352e-09
-1.06438e-07
-7.88437e-09
3.05895e-08
-1.56834e-08
3.02659e-08
-2.33822e-08
2.98912e-08
-3.09666e-08
2.94687e-08
-3.84236e-08
2.90014e-08
-4.57409e-08
2.84923e-08
-5.29073e-08
2.79446e-08
-5.99123e-08
2.73613e-08
-6.67463e-08
2.67453e-08
-7.34008e-08
2.60997e-08
-7.98679e-08
2.54273e-08
-8.61406e-08
2.47308e-08
-9.22129e-08
2.40131e-08
-9.80793e-08
2.32768e-08
-1.03735e-07
2.25245e-08
-1.09177e-07
2.17586e-08
-1.14401e-07
2.09816e-08
-1.19405e-07
2.01956e-08
-1.24188e-07
1.9403e-08
-1.28747e-07
1.86057e-08
-1.33083e-07
1.78057e-08
-1.37196e-07
1.7005e-08
-1.41085e-07
1.62054e-08
-1.44752e-07
1.54084e-08
-1.48198e-07
1.46156e-08
-1.51425e-07
1.38286e-08
-1.54435e-07
1.30488e-08
-1.57232e-07
1.22772e-08
-1.59817e-07
1.15153e-08
-1.62195e-07
1.0764e-08
-1.64368e-07
1.00244e-08
-1.66341e-07
9.2973e-09
-1.68118e-07
8.58362e-09
-1.69703e-07
7.88409e-09
-1.71101e-07
7.19937e-09
-1.72315e-07
6.53004e-09
-1.73352e-07
5.87664e-09
-1.74216e-07
5.23962e-09
-1.74912e-07
4.61936e-09
-1.75446e-07
4.01618e-09
-1.75821e-07
3.43035e-09
-1.76044e-07
2.86208e-09
-1.7612e-07
2.31151e-09
-1.76055e-07
1.77877e-09
-1.75853e-07
1.2639e-09
-1.75519e-07
7.66916e-10
-1.7506e-07
2.87797e-10
-1.74481e-07
-1.73524e-10
-1.73786e-07
-6.17148e-10
-1.7298e-07
-1.04321e-09
-1.7207e-07
-1.45187e-09
-1.71059e-07
-1.84332e-09
-1.69954e-07
-2.21778e-09
-1.68758e-07
-2.57548e-09
-1.67477e-07
-2.91669e-09
-1.66115e-07
-3.24169e-09
-1.64677e-07
-3.55078e-09
-1.63167e-07
-3.84426e-09
-1.6159e-07
-4.12245e-09
-1.59951e-07
-4.38571e-09
-1.58252e-07
-4.63436e-09
-1.565e-07
-4.86877e-09
-1.54696e-07
-5.0893e-09
-1.52846e-07
-5.29631e-09
-1.50952e-07
-5.49018e-09
-1.49019e-07
-5.67127e-09
-1.4705e-07
-5.83997e-09
-1.45049e-07
-5.99665e-09
-1.43018e-07
-6.14169e-09
-1.40961e-07
-6.27547e-09
-1.3888e-07
-6.39835e-09
-1.3678e-07
-6.51073e-09
-1.34662e-07
-6.61295e-09
-1.32529e-07
-6.70539e-09
-1.30384e-07
-6.78842e-09
-1.2823e-07
-6.86238e-09
-1.26067e-07
-6.92763e-09
-1.239e-07
-6.98451e-09
-1.2173e-07
-7.03337e-09
-7.07454e-09
-1.19559e-07
-1.02662e-08
4.08556e-08
-2.04198e-08
4.04195e-08
-3.04403e-08
3.99117e-08
-4.03081e-08
3.93365e-08
-5.00049e-08
3.86982e-08
-5.95139e-08
3.80013e-08
-6.88193e-08
3.725e-08
-7.79067e-08
3.64487e-08
-8.67629e-08
3.56015e-08
-9.53759e-08
3.47127e-08
-1.03735e-07
3.37863e-08
-1.1183e-07
3.28263e-08
-1.19654e-07
3.18365e-08
-1.27198e-07
3.08207e-08
-1.34456e-07
2.97826e-08
-1.41423e-07
2.87257e-08
-1.48094e-07
2.76533e-08
-1.54467e-07
2.65686e-08
-1.60539e-07
2.54748e-08
-1.66308e-07
2.43748e-08
-1.71774e-07
2.32714e-08
-1.76936e-07
2.21673e-08
-1.81796e-07
2.1065e-08
-1.86354e-07
1.99668e-08
-1.90614e-07
1.88749e-08
-1.94577e-07
1.77915e-08
-1.98246e-07
1.67185e-08
-2.01627e-07
1.56576e-08
-2.04722e-07
1.46106e-08
-2.07537e-07
1.3579e-08
-2.10077e-07
1.25641e-08
-2.12347e-07
1.15672e-08
-2.14353e-07
1.05896e-08
-2.16101e-07
9.63222e-09
-2.17597e-07
8.696e-09
-2.18849e-07
7.78178e-09
-2.19863e-07
6.89027e-09
-2.20645e-07
6.0221e-09
-2.21204e-07
5.17778e-09
-2.21545e-07
4.35777e-09
-2.21677e-07
3.5624e-09
-2.21607e-07
2.79196e-09
-2.21342e-07
2.04664e-09
-2.2089e-07
1.32657e-09
-2.20258e-07
6.31808e-10
-2.19453e-07
-3.76486e-11
-2.18484e-07
-6.81859e-10
-2.17356e-07
-1.30094e-09
-2.16079e-07
-1.89505e-09
-2.14657e-07
-2.4644e-09
-2.131e-07
-3.00925e-09
-2.11413e-07
-3.52989e-09
-2.09605e-07
-4.02664e-09
-2.0768e-07
-4.49987e-09
-2.05647e-07
-4.94996e-09
-2.03511e-07
-5.37733e-09
-2.0128e-07
-5.78243e-09
-1.98958e-07
-6.1657e-09
-1.96553e-07
-6.52762e-09
-1.9407e-07
-6.8687e-09
-1.91515e-07
-7.18943e-09
-1.88893e-07
-7.49033e-09
-1.86211e-07
-7.77193e-09
-1.83472e-07
-8.03476e-09
-1.80683e-07
-8.27936e-09
-1.77848e-07
-8.50628e-09
-1.74972e-07
-8.71605e-09
-1.72059e-07
-8.90923e-09
-1.69115e-07
-9.08635e-09
-1.66142e-07
-9.24796e-09
-1.63146e-07
-9.3946e-09
-1.6013e-07
-9.52681e-09
-1.57098e-07
-9.64512e-09
-1.54053e-07
-9.75004e-09
-1.50999e-07
-9.8421e-09
-1.4794e-07
-9.92181e-09
-1.44878e-07
-9.98968e-09
-1.41816e-07
-1.00462e-08
-1.38758e-07
-1.00918e-08
-1.01271e-08
-1.35705e-07
-1.361e-08
5.44656e-08
-2.70691e-08
5.38787e-08
-4.03483e-08
5.31909e-08
-5.34201e-08
5.24083e-08
-6.6259e-08
5.15371e-08
-7.88411e-08
5.05834e-08
-9.11445e-08
4.95534e-08
-1.03149e-07
4.84531e-08
-1.14836e-07
4.72884e-08
-1.26188e-07
4.60652e-08
-1.37191e-07
4.47894e-08
-1.47832e-07
4.34665e-08
-1.58097e-07
4.2102e-08
-1.67978e-07
4.07012e-08
-1.77464e-07
3.92693e-08
-1.8655e-07
3.78112e-08
-1.95228e-07
3.63317e-08
-2.03495e-07
3.48354e-08
-2.11347e-07
3.33266e-08
-2.18782e-07
3.18096e-08
-2.25798e-07
3.02882e-08
-2.32397e-07
2.87663e-08
-2.3858e-07
2.72474e-08
-2.44348e-07
2.57348e-08
-2.49704e-07
2.42316e-08
-2.54654e-07
2.27409e-08
-2.59201e-07
2.12653e-08
-2.6335e-07
1.98073e-08
-2.67109e-07
1.83694e-08
-2.70484e-07
1.69536e-08
-2.73482e-07
1.55619e-08
-2.76111e-07
1.41962e-08
-2.78379e-07
1.28579e-08
-2.80295e-07
1.15487e-08
-2.81869e-07
1.02697e-08
-2.83109e-07
9.02212e-09
-2.84026e-07
7.80695e-09
-2.84629e-07
6.62503e-09
-2.84928e-07
5.47708e-09
-2.84934e-07
4.36369e-09
-2.84657e-07
3.28533e-09
-2.84107e-07
2.24236e-09
-2.83296e-07
1.23502e-09
-2.82233e-07
2.6347e-10
-2.80929e-07
-6.72242e-10
-2.79394e-07
-1.57215e-09
-2.7764e-07
-2.43637e-09
-2.75676e-07
-3.2651e-09
-2.73512e-07
-4.05861e-09
-2.71159e-07
-4.81721e-09
-2.68627e-07
-5.54131e-09
-2.65926e-07
-6.23134e-09
-2.63064e-07
-6.8878e-09
-2.60053e-07
-7.51124e-09
-2.56901e-07
-8.10223e-09
-2.53617e-07
-8.66138e-09
-2.5021e-07
-9.18936e-09
-2.46689e-07
-9.68682e-09
-2.43062e-07
-1.01545e-08
-2.39337e-07
-1.05931e-08
-2.35524e-07
-1.10033e-08
-2.31628e-07
-1.1386e-08
-2.27658e-07
-1.17418e-08
-2.23621e-07
-1.20716e-08
-2.19524e-07
-1.23762e-08
-2.15374e-07
-1.26563e-08
-2.11178e-07
-1.29127e-08
-2.06941e-07
-1.31462e-08
-2.02669e-07
-1.33576e-08
-1.9837e-07
-1.35477e-08
-1.94047e-07
-1.37172e-08
-1.89707e-07
-1.3867e-08
-1.85354e-07
-1.39978e-08
-1.80994e-07
-1.41102e-08
-1.76631e-07
-1.42052e-08
-1.72269e-07
-1.42834e-08
-1.67913e-07
-1.43455e-08
-1.63567e-07
-1.43922e-08
-1.59235e-07
-1.44243e-08
-1.44424e-08
-1.5492e-07
-1.83023e-08
7.27679e-08
-3.63995e-08
7.19759e-08
-5.42505e-08
7.10418e-08
-7.18164e-08
6.99742e-08
-8.90611e-08
6.87818e-08
-1.05951e-07
6.74732e-08
-1.22454e-07
6.6057e-08
-1.38543e-07
6.45419e-08
-1.54191e-07
6.29363e-08
-1.69374e-07
6.12484e-08
-1.84071e-07
5.94865e-08
-1.98264e-07
5.76586e-08
-2.11934e-07
5.57723e-08
-2.25068e-07
5.38352e-08
-2.37653e-07
5.18547e-08
-2.4968e-07
4.98377e-08
-2.61139e-07
4.7791e-08
-2.72025e-07
4.5721e-08
-2.82332e-07
4.36341e-08
-2.92059e-07
4.15361e-08
-3.01203e-07
3.94326e-08
-3.09766e-07
3.7329e-08
-3.17749e-07
3.52302e-08
-3.25155e-07
3.31411e-08
-3.31989e-07
3.1066e-08
-3.38258e-07
2.90091e-08
-3.43967e-07
2.69743e-08
-3.49124e-07
2.49651e-08
-3.5374e-07
2.29848e-08
-3.57823e-07
2.10365e-08
-3.61384e-07
1.9123e-08
-3.64434e-07
1.72467e-08
-3.66986e-07
1.541e-08
-3.69052e-07
1.36148e-08
-3.70646e-07
1.1863e-08
-3.7178e-07
1.01562e-08
-3.72468e-07
8.49568e-09
-3.72726e-07
6.88268e-09
-3.72567e-07
5.31817e-09
-3.72006e-07
3.80294e-09
-3.71059e-07
2.33763e-09
-3.69739e-07
9.2271e-10
-3.68063e-07
-4.41521e-10
-3.66044e-07
-1.75489e-09
-3.63699e-07
-3.01736e-09
-3.61042e-07
-4.22903e-09
-3.58089e-07
-5.39011e-09
-3.54853e-07
-6.50092e-09
-3.51349e-07
-7.56188e-09
-3.47593e-07
-8.5735e-09
-3.43598e-07
-9.53638e-09
-3.39378e-07
-1.04512e-08
-3.34947e-07
-1.13187e-08
-3.30319e-07
-1.21397e-08
-3.25506e-07
-1.2915e-08
-3.20522e-07
-1.36457e-08
-3.15379e-07
-1.43325e-08
-3.10089e-07
-1.49766e-08
-3.04664e-07
-1.5579e-08
-2.99117e-07
-1.61407e-08
-2.93457e-07
-1.66629e-08
-2.87697e-07
-1.71465e-08
-2.81845e-07
-1.75929e-08
-2.75914e-07
-1.8003e-08
-2.69912e-07
-1.83781e-08
-2.63849e-07
-1.87192e-08
-2.57735e-07
-1.90275e-08
-2.51576e-07
-1.93043e-08
-2.45384e-07
-1.95505e-08
-2.39164e-07
-1.97673e-08
-2.32925e-07
-1.9956e-08
-2.26675e-07
-2.01175e-08
-2.2042e-07
-2.02529e-08
-2.14166e-07
-2.03635e-08
-2.07922e-07
-2.04501e-08
-2.01691e-07
-2.05139e-08
-1.95481e-07
-2.05559e-08
-1.89296e-07
-2.05771e-08
-1.83142e-07
-2.05785e-08
-2.0561e-08
-1.77023e-07
-2.49005e-08
9.76684e-08
-4.95193e-08
9.65947e-08
-7.37977e-08
9.53202e-08
-9.76805e-08
9.38571e-08
-1.21116e-07
9.22175e-08
-1.44057e-07
9.04138e-08
-1.66458e-07
8.84582e-08
-1.88279e-07
8.63628e-08
-2.09482e-07
8.41397e-08
-2.30034e-07
8.18006e-08
-2.49905e-07
7.9357e-08
-2.69067e-07
7.68203e-08
-2.87496e-07
7.42016e-08
-3.05172e-07
7.15114e-08
-3.22078e-07
6.87602e-08
-3.38198e-07
6.5958e-08
-3.53521e-07
6.31143e-08
-3.68039e-07
6.02384e-08
-3.81744e-07
5.73392e-08
-3.94633e-07
5.44249e-08
-4.06704e-07
5.15037e-08
-4.17958e-07
4.8583e-08
-4.28398e-07
4.56701e-08
-4.38028e-07
4.27717e-08
-4.46856e-07
3.9894e-08
-4.5489e-07
3.7043e-08
-4.6214e-07
3.42241e-08
-4.68617e-07
3.14425e-08
-4.74335e-07
2.87028e-08
-4.79308e-07
2.60094e-08
-4.83551e-07
2.3366e-08
-4.87081e-07
2.07765e-08
-4.89915e-07
1.82438e-08
-4.92071e-07
1.5771e-08
-4.93568e-07
1.33604e-08
-4.94427e-07
1.10145e-08
-4.94666e-07
8.73502e-09
-4.94307e-07
6.52366e-09
-4.9337e-07
4.38178e-09
-4.91878e-07
2.31046e-09
-4.89851e-07
3.10564e-10
-4.87311e-07
-1.6173e-09
-4.8428e-07
-3.47275e-09
-4.80779e-07
-5.25559e-09
-4.7683e-07
-6.96583e-09
-4.72456e-07
-8.60366e-09
-4.67677e-07
-1.01694e-08
-4.62514e-07
-1.16637e-08
-4.56989e-07
-1.30871e-08
-4.51122e-07
-1.44404e-08
-4.44934e-07
-1.57245e-08
-4.38444e-07
-1.69405e-08
-4.31674e-07
-1.80894e-08
-4.24641e-07
-1.91726e-08
-4.17365e-07
-2.01913e-08
-4.09863e-07
-2.11468e-08
-4.02155e-07
-2.20406e-08
-3.94258e-07
-2.28742e-08
-3.86188e-07
-2.36491e-08
-3.77962e-07
-2.43669e-08
-3.69595e-07
-2.50292e-08
-3.61104e-07
-2.56376e-08
-3.52503e-07
-2.61937e-08
-3.43807e-07
-2.66993e-08
-3.35029e-07
-2.7156e-08
-3.26183e-07
-2.75655e-08
-3.17281e-07
-2.79294e-08
-3.08336e-07
-2.82494e-08
-2.99359e-07
-2.85272e-08
-2.90362e-07
-2.87645e-08
-2.81355e-07
-2.89628e-08
-2.72349e-07
-2.91238e-08
-2.63353e-07
-2.9249e-08
-2.54376e-07
-2.93401e-08
-2.45428e-07
-2.93985e-08
-2.36516e-07
-2.94258e-08
-2.27648e-07
-2.94235e-08
-2.18833e-07
-2.93929e-08
-2.10076e-07
-2.93356e-08
-2.92529e-08
-2.01384e-07
-3.42076e-08
1.31876e-07
-6.80249e-08
1.30412e-07
-1.01368e-07
1.28663e-07
-1.34158e-07
1.26647e-07
-1.66322e-07
1.24381e-07
-1.9779e-07
1.21882e-07
-2.28501e-07
1.19168e-07
-2.58394e-07
1.16256e-07
-2.87417e-07
1.13163e-07
-3.15522e-07
1.09906e-07
-3.42666e-07
1.065e-07
-3.68808e-07
1.02963e-07
-3.93917e-07
9.93098e-08
-4.17961e-07
9.55556e-08
-4.40916e-07
9.17152e-08
-4.62761e-07
8.78028e-08
-4.83478e-07
8.38322e-08
-5.03057e-07
7.98165e-08
-5.21486e-07
7.57682e-08
-5.3876e-07
7.16994e-08
-5.54878e-07
6.76215e-08
-5.6984e-07
6.35453e-08
-5.83651e-07
5.94809e-08
-5.96317e-07
5.5438e-08
-6.07849e-07
5.14257e-08
-6.18258e-07
4.74523e-08
-6.2756e-07
4.35256e-08
-6.3577e-07
3.9653e-08
-6.42909e-07
3.58412e-08
-6.48996e-07
3.20963e-08
-6.54054e-07
2.84238e-08
-6.58106e-07
2.4829e-08
-6.61179e-07
2.13164e-08
-6.63298e-07
1.789e-08
-6.64491e-07
1.45535e-08
-6.64786e-07
1.131e-08
-6.64214e-07
8.16233e-09
-6.62803e-07
5.11269e-09
-6.60584e-07
2.16303e-09
-6.57588e-07
-6.85147e-10
-6.53847e-07
-3.43066e-09
-6.49392e-07
-6.07268e-09
-6.44254e-07
-8.61071e-09
-6.38465e-07
-1.10445e-08
-6.32056e-07
-1.33743e-08
-6.2506e-07
-1.56002e-08
-6.17506e-07
-1.77229e-08
-6.09427e-07
-1.97433e-08
-6.00851e-07
-2.16623e-08
-5.91811e-07
-2.34812e-08
-5.82334e-07
-2.52013e-08
-5.7245e-07
-2.68242e-08
-5.62188e-07
-2.83516e-08
-5.51575e-07
-2.97854e-08
-5.40639e-07
-3.11274e-08
-5.29406e-07
-3.23797e-08
-5.17902e-07
-3.35445e-08
-5.06152e-07
-3.4624e-08
-4.94181e-07
-3.56204e-08
-4.82012e-07
-3.65361e-08
-4.69667e-07
-3.73734e-08
-4.5717e-07
-3.81348e-08
-4.44541e-07
-3.88227e-08
-4.31801e-07
-3.94396e-08
-4.18969e-07
-3.99879e-08
-4.06065e-07
-4.04701e-08
-3.93105e-07
-4.08886e-08
-3.80109e-07
-4.1246e-08
-3.67091e-07
-4.15447e-08
-3.54069e-07
-4.17869e-08
-3.41056e-07
-4.19753e-08
-3.28068e-07
-4.2112e-08
-3.15117e-07
-4.21995e-08
-3.02217e-07
-4.224e-08
-2.8938e-07
-4.22357e-08
-2.76617e-07
-4.21889e-08
-2.63939e-07
-4.21017e-08
-2.51356e-07
-4.19761e-08
-2.38877e-07
-4.18143e-08
-4.16182e-08
-2.26512e-07
-4.73775e-08
1.79253e-07
-9.42106e-08
1.77245e-07
-1.40379e-07
1.74832e-07
-1.85772e-07
1.72039e-07
-2.30282e-07
1.68891e-07
-2.73812e-07
1.65413e-07
-3.16272e-07
1.61628e-07
-3.57577e-07
1.57562e-07
-3.97652e-07
1.53238e-07
-4.36427e-07
1.48681e-07
-4.7384e-07
1.43913e-07
-5.09834e-07
1.38958e-07
-5.44362e-07
1.33837e-07
-5.7738e-07
1.28573e-07
-6.08852e-07
1.23187e-07
-6.38747e-07
1.17698e-07
-6.67042e-07
1.12127e-07
-6.93716e-07
1.06491e-07
-7.18758e-07
1.0081e-07
-7.42157e-07
9.50992e-08
-7.63912e-07
8.93761e-08
-7.84023e-07
8.3656e-08
-8.02495e-07
7.79534e-08
-8.1934e-07
7.22822e-08
-8.34569e-07
6.66553e-08
-8.48202e-07
6.10848e-08
-8.60258e-07
5.55821e-08
-8.70763e-07
5.01575e-08
-8.79742e-07
4.48207e-08
-8.87227e-07
3.95807e-08
-8.93248e-07
3.44456e-08
-8.97842e-07
2.94225e-08
-9.01044e-07
2.45183e-08
-9.02893e-07
1.97388e-08
-9.03428e-07
1.50892e-08
-9.02692e-07
1.05741e-08
-9.00728e-07
6.19744e-09
-8.97577e-07
1.9625e-09
-8.93286e-07
-2.12797e-09
-8.879e-07
-6.07178e-09
-8.81463e-07
-9.86727e-09
-8.74023e-07
-1.35133e-08
-8.65624e-07
-1.70091e-08
-8.56314e-07
-2.03545e-08
-8.46139e-07
-2.35497e-08
-8.35144e-07
-2.65952e-08
-8.23375e-07
-2.94919e-08
-8.10877e-07
-3.22411e-08
-7.97695e-07
-3.48443e-08
-7.83873e-07
-3.73034e-08
-7.69454e-07
-3.96205e-08
-7.5448e-07
-4.17979e-08
-7.38993e-07
-4.38383e-08
-7.23035e-07
-4.57442e-08
-7.06643e-07
-4.75188e-08
-6.89858e-07
-4.9165e-08
-6.72717e-07
-5.0686e-08
-6.55255e-07
-5.20851e-08
-6.3751e-07
-5.33659e-08
-6.19514e-07
-5.45316e-08
-6.01302e-07
-5.5586e-08
-5.82904e-07
-5.65326e-08
-5.64352e-07
-5.7375e-08
-5.45674e-07
-5.81169e-08
-5.269e-07
-5.8762e-08
-5.08056e-07
-5.93139e-08
-4.89169e-07
-5.97762e-08
-4.70262e-07
-6.01528e-08
-4.5136e-07
-6.0447e-08
-4.32484e-07
-6.06625e-08
-4.13657e-07
-6.08029e-08
-3.94897e-07
-6.08715e-08
-3.76225e-07
-6.08719e-08
-3.57657e-07
-6.08073e-08
-3.39212e-07
-6.06811e-08
-3.20904e-07
-6.04965e-08
-3.02749e-07
-6.02566e-08
-2.84761e-07
-5.99644e-08
-2.66952e-07
-5.96231e-08
-5.92354e-08
-2.49335e-07
-6.60596e-08
2.45313e-07
-1.31356e-07
2.42542e-07
-1.9572e-07
2.39195e-07
-2.58989e-07
2.35309e-07
-3.21014e-07
2.30917e-07
-3.81656e-07
2.26054e-07
-4.40784e-07
2.20756e-07
-4.98279e-07
2.15057e-07
-5.54032e-07
2.08991e-07
-6.07942e-07
2.02591e-07
-6.59921e-07
1.95891e-07
-7.09886e-07
1.88923e-07
-7.57768e-07
1.81719e-07
-8.03503e-07
1.74309e-07
-8.4704e-07
1.66724e-07
-8.88333e-07
1.58991e-07
-9.27345e-07
1.51139e-07
-9.64049e-07
1.43195e-07
-9.98422e-07
1.35184e-07
-1.03045e-06
1.2713e-07
-1.06014e-06
1.19058e-07
-1.08747e-06
1.10989e-07
-1.11246e-06
1.02945e-07
-1.13512e-06
9.49444e-08
-1.15547e-06
8.70074e-08
-1.17354e-06
7.91509e-08
-1.18935e-06
7.13914e-08
-1.20294e-06
6.37441e-08
-1.21434e-06
5.62231e-08
-1.2236e-06
4.88413e-08
-1.23076e-06
4.16106e-08
-1.23588e-06
3.45418e-08
-1.23901e-06
2.76446e-08
-1.2402e-06
2.09277e-08
-1.23951e-06
1.43988e-08
-1.237e-06
8.06477e-09
-1.23273e-06
1.9313e-09
-1.22677e-06
-3.99662e-09
-1.21919e-06
-9.71491e-09
-1.21004e-06
-1.52203e-08
-1.19939e-06
-2.05103e-08
-1.18732e-06
-2.55832e-08
-1.1739e-06
-3.0438e-08
-1.15918e-06
-3.50741e-08
-1.14323e-06
-3.9492e-08
-1.12614e-06
-4.36923e-08
-1.10795e-06
-4.76766e-08
-1.08875e-06
-5.14466e-08
-1.06859e-06
-5.50046e-08
-1.04754e-06
-5.83535e-08
-1.02566e-06
-6.14964e-08
-1.00302e-06
-6.44368e-08
-9.79681e-07
-6.71786e-08
-9.55699e-07
-6.97259e-08
-9.31135e-07
-7.20832e-08
-9.06045e-07
-7.42549e-08
-8.80485e-07
-7.6246e-08
-8.54508e-07
-7.80615e-08
-8.28168e-07
-7.97064e-08
-8.01513e-07
-8.11861e-08
-7.74593e-07
-8.25059e-08
-7.47455e-07
-8.36712e-08
-7.20142e-07
-8.46876e-08
-6.92699e-07
-8.55604e-08
-6.65165e-07
-8.62952e-08
-6.37582e-07
-8.68975e-08
-6.09985e-07
-8.73729e-08
-5.82411e-07
-8.77267e-08
-5.54894e-07
-8.79645e-08
-5.27465e-07
-8.80914e-08
-5.00155e-07
-8.81128e-08
-4.72992e-07
-8.80339e-08
-4.46005e-07
-8.78597e-08
-4.19217e-07
-8.75953e-08
-3.92652e-07
-8.72456e-08
-3.66333e-07
-8.68153e-08
-3.40281e-07
-8.63091e-08
-3.14514e-07
-8.57315e-08
-2.8905e-07
-8.50869e-08
-8.43796e-08
-2.63906e-07
-9.25868e-08
3.379e-07
-1.84102e-07
3.34057e-07
-2.74306e-07
3.29399e-07
-3.6297e-07
3.23973e-07
-4.49882e-07
3.17829e-07
-5.34843e-07
3.11016e-07
-6.17671e-07
3.03583e-07
-6.98193e-07
2.95579e-07
-7.76253e-07
2.87051e-07
-8.51708e-07
2.78046e-07
-9.24429e-07
2.68612e-07
-9.94299e-07
2.58793e-07
-1.06121e-06
2.48633e-07
-1.12508e-06
2.38177e-07
-1.18582e-06
2.27466e-07
-1.24337e-06
2.1654e-07
-1.29767e-06
2.0544e-07
-1.34868e-06
1.94203e-07
-1.39636e-06
1.82866e-07
-1.4407e-06
1.71463e-07
-1.48167e-06
1.60029e-07
-1.51927e-06
1.48595e-07
-1.55352e-06
1.37191e-07
-1.58442e-06
1.25847e-07
-1.612e-06
1.14589e-07
-1.6363e-06
1.03443e-07
-1.65734e-06
9.24337e-08
-1.67518e-06
8.15825e-08
-1.68987e-06
7.09105e-08
-1.70146e-06
6.0437e-08
-1.71003e-06
5.01795e-08
-1.71564e-06
4.01542e-08
-1.71837e-06
3.03758e-08
-1.7183e-06
2.08574e-08
-1.71551e-06
1.16107e-08
-1.7101e-06
2.64611e-09
-1.70214e-06
-6.02747e-09
-1.69173e-06
-1.44023e-08
-1.67897e-06
-2.24721e-08
-1.66396e-06
-3.02317e-08
-1.6468e-06
-3.76769e-08
-1.62757e-06
-4.4805e-08
-1.6064e-06
-5.16141e-08
-1.58337e-06
-5.81034e-08
-1.55859e-06
-6.42729e-08
-1.53216e-06
-7.01239e-08
-1.50418e-06
-7.5658e-08
-1.47474e-06
-8.0878e-08
-1.44396e-06
-8.57872e-08
-1.41193e-06
-9.03898e-08
-1.37873e-06
-9.46903e-08
-1.34447e-06
-9.8694e-08
-1.30925e-06
-1.02407e-07
-1.27314e-06
-1.05835e-07
-1.23624e-06
-1.08984e-07
-1.19863e-06
-1.11863e-07
-1.1604e-06
-1.14478e-07
-1.12162e-06
-1.16836e-07
-1.08238e-06
-1.18946e-07
-1.04275e-06
-1.20815e-07
-1.00281e-06
-1.22452e-07
-9.62614e-07
-1.23865e-07
-9.22239e-07
-1.25062e-07
-8.81747e-07
-1.26052e-07
-8.41198e-07
-1.26843e-07
-8.00652e-07
-1.27444e-07
-7.60162e-07
-1.27863e-07
-7.19782e-07
-1.28107e-07
-6.7956e-07
-1.28186e-07
-6.39544e-07
-1.28108e-07
-5.99776e-07
-1.2788e-07
-5.603e-07
-1.27511e-07
-5.21152e-07
-1.27007e-07
-4.8237e-07
-1.26378e-07
-4.43986e-07
-1.25629e-07
-4.06032e-07
-1.24769e-07
-3.68537e-07
-1.23804e-07
-3.31527e-07
-1.22741e-07
-2.95027e-07
-1.21587e-07
-1.20348e-07
-2.59058e-07
-1.30195e-07
4.68095e-07
-2.58888e-07
4.6275e-07
-3.85743e-07
4.56254e-07
-5.10444e-07
4.48673e-07
-6.32693e-07
4.40078e-07
-7.52213e-07
4.30536e-07
-8.68745e-07
4.20115e-07
-9.82048e-07
4.08882e-07
-1.0919e-06
3.96902e-07
-1.1981e-06
3.84242e-07
-1.30045e-06
3.70965e-07
-1.39879e-06
3.57134e-07
-1.49297e-06
3.42811e-07
-1.58284e-06
3.28054e-07
-1.6683e-06
3.12924e-07
-1.74924e-06
2.97477e-07
-1.82557e-06
2.81767e-07
-1.89721e-06
2.65848e-07
-1.96412e-06
2.49772e-07
-2.02624e-06
2.33589e-07
-2.08356e-06
2.17345e-07
-2.13605e-06
2.01087e-07
-2.18372e-06
1.84859e-07
-2.22657e-06
1.68701e-07
-2.26464e-06
1.52655e-07
-2.29795e-06
1.36756e-07
-2.32656e-06
1.21041e-07
-2.35052e-06
1.05544e-07
-2.3699e-06
9.02937e-08
-2.38479e-06
7.53209e-08
-2.39526e-06
6.0652e-08
-2.40142e-06
4.63117e-08
-2.40336e-06
3.23227e-08
-2.40121e-06
1.87055e-08
-2.39508e-06
5.47876e-09
-2.38509e-06
-7.34118e-09
-2.37138e-06
-1.97398e-08
-2.35408e-06
-3.17044e-08
-2.33333e-06
-4.32245e-08
-2.30927e-06
-5.42912e-08
-2.28205e-06
-6.48973e-08
-2.25181e-06
-7.50377e-08
-2.21872e-06
-8.47084e-08