/*--------------------------------*- C++ -*----------------------------------*\
  =========                 |
  \\      /  F ield         | OpenFOAM: The Open Source CFD Toolbox
   \\    /   O peration     | Website:  https://openfoam.org
    \\  /    A nd           | Version:  8
     \\/     M anipulation  |
\*---------------------------------------------------------------------------*/
FoamFile
{
    version     2.0;
    format      ascii;
    class       surfaceScalarField;
    location    "4000";
    object      phib;
}
// * * * * * * * * * * * * * * * * * * * * * * * * * * * * * * * * * * * * * //

dimensions      [0 3 -1 0 0 0 0];

internalField   nonuniform List<scalar> 
25360
(
-6.23926e-20
-4.26903e-14
-1.24143e-19
-4.23174e-14
-1.85163e-19
-4.19477e-14
-2.45371e-19
-4.15813e-14
-3.04691e-19
-4.1218e-14
-3.63051e-19
-4.0858e-14
-4.20384e-19
-4.05011e-14
-4.76629e-19
-4.01473e-14
-5.3173e-19
-3.97965e-14
-5.85636e-19
-3.94489e-14
-6.383e-19
-3.91043e-14
-6.89681e-19
-3.87627e-14
-7.39741e-19
-3.84241e-14
-7.88447e-19
-3.80884e-14
-8.35773e-19
-3.77557e-14
-8.81692e-19
-3.74259e-14
-9.26185e-19
-3.70989e-14
-9.69236e-19
-3.67748e-14
-1.01083e-18
-3.64536e-14
-1.05096e-18
-3.61352e-14
-1.08962e-18
-3.58195e-14
-1.12681e-18
-3.55066e-14
-1.16253e-18
-3.51964e-14
-1.19677e-18
-3.4889e-14
-1.22955e-18
-3.45842e-14
-1.26088e-18
-3.42821e-14
-1.29076e-18
-3.39826e-14
-1.31921e-18
-3.36857e-14
-1.34624e-18
-3.33915e-14
-1.37187e-18
-3.30998e-14
-1.39612e-18
-3.28106e-14
-1.419e-18
-3.2524e-14
-1.44055e-18
-3.22399e-14
-1.46077e-18
-3.19583e-14
-1.4797e-18
-3.16791e-14
-1.49737e-18
-3.14023e-14
-1.51379e-18
-3.1128e-14
-1.52899e-18
-3.08561e-14
-1.54301e-18
-3.05866e-14
-1.55586e-18
-3.03194e-14
-1.56758e-18
-3.00545e-14
-1.5782e-18
-2.9792e-14
-1.58775e-18
-2.95317e-14
-1.59625e-18
-2.92737e-14
-1.60374e-18
-2.9018e-14
-1.61025e-18
-2.87645e-14
-1.6158e-18
-2.85132e-14
-1.62044e-18
-2.82642e-14
-1.62417e-18
-2.80173e-14
-1.62705e-18
-2.77725e-14
-1.62909e-18
-2.75299e-14
-1.63033e-18
-2.72894e-14
-1.6308e-18
-2.7051e-14
-1.63051e-18
-2.68147e-14
-1.62952e-18
-2.65805e-14
-1.62783e-18
-2.63483e-14
-1.62548e-18
-2.61181e-14
-1.6225e-18
-2.58899e-14
-1.61891e-18
-2.56638e-14
-1.61474e-18
-2.54396e-14
-1.61001e-18
-2.52174e-14
-1.60476e-18
-2.49971e-14
-1.599e-18
-2.47787e-14
-1.59276e-18
-2.45623e-14
-1.58606e-18
-2.43477e-14
-1.57893e-18
-2.4135e-14
-1.57139e-18
-2.39242e-14
-1.56345e-18
-2.37152e-14
-1.55515e-18
-2.3508e-14
-1.5465e-18
-2.33026e-14
-1.53753e-18
-2.30991e-14
-1.52824e-18
-2.28973e-14
-1.51867e-18
-2.26973e-14
-1.50882e-18
-2.2499e-14
-1.49872e-18
-2.23025e-14
-1.48839e-18
-2.21076e-14
-1.47784e-18
-2.19145e-14
-1.46708e-18
-2.17231e-14
-1.45613e-18
-2.15333e-14
-2.13452e-14
-1.44483e-18
-6.64926e-20
-4.26903e-14
-1.32297e-19
-4.23173e-14
-1.97317e-19
-4.19477e-14
-2.61463e-19
-4.15812e-14
-3.24649e-19
-4.1218e-14
-3.86798e-19
-4.08579e-14
-4.47835e-19
-4.0501e-14
-5.07693e-19
-4.01472e-14
-5.6631e-19
-3.97965e-14
-6.23631e-19
-3.94488e-14
-6.79604e-19
-3.91042e-14
-7.34183e-19
-3.87626e-14
-7.87327e-19
-3.8424e-14
-8.39001e-19
-3.80884e-14
-8.89173e-19
-3.77556e-14
-9.37818e-19
-3.74258e-14
-9.84912e-19
-3.70989e-14
-1.03044e-18
-3.67748e-14
-1.07438e-18
-3.64536e-14
-1.11674e-18
-3.61351e-14
-1.15749e-18
-3.58195e-14
-1.19665e-18
-3.55065e-14
-1.2342e-18
-3.51964e-14
-1.27016e-18
-3.48889e-14
-1.30453e-18
-3.45841e-14
-1.33732e-18
-3.4282e-14
-1.36855e-18
-3.39826e-14
-1.39821e-18
-3.36857e-14
-1.42635e-18
-3.33914e-14
-1.45296e-18
-3.30997e-14
-1.47808e-18
-3.28106e-14
-1.50172e-18
-3.2524e-14
-1.52391e-18
-3.22399e-14
-1.54467e-18
-3.19582e-14
-1.56403e-18
-3.16791e-14
-1.58203e-18
-3.14023e-14
-1.59868e-18
-3.1128e-14
-1.61402e-18
-3.08561e-14
-1.62807e-18
-3.05865e-14
-1.64088e-18
-3.03194e-14
-1.65247e-18
-3.00545e-14
-1.66287e-18
-2.9792e-14
-1.67212e-18
-2.95317e-14
-1.68025e-18
-2.92737e-14
-1.68729e-18
-2.9018e-14
-1.69327e-18
-2.87645e-14
-1.69824e-18
-2.85132e-14
-1.70222e-18
-2.82642e-14
-1.70524e-18
-2.80173e-14
-1.70734e-18
-2.77725e-14
-1.70855e-18
-2.75299e-14
-1.70891e-18
-2.72894e-14
-1.70845e-18
-2.7051e-14
-1.70719e-18
-2.68147e-14
-1.70517e-18
-2.65805e-14
-1.70242e-18
-2.63483e-14
-1.69897e-18
-2.61181e-14
-1.69485e-18
-2.589e-14
-1.6901e-18
-2.56638e-14
-1.68473e-18
-2.54396e-14
-1.67878e-18
-2.52174e-14
-1.67227e-18
-2.49971e-14
-1.66523e-18
-2.47787e-14
-1.6577e-18
-2.45623e-14
-1.64969e-18
-2.43477e-14
-1.64122e-18
-2.4135e-14
-1.63233e-18
-2.39242e-14
-1.62304e-18
-2.37152e-14
-1.61337e-18
-2.3508e-14
-1.60334e-18
-2.33027e-14
-1.59298e-18
-2.30991e-14
-1.58231e-18
-2.28973e-14
-1.57134e-18
-2.26973e-14
-1.56009e-18
-2.2499e-14
-1.5486e-18
-2.23025e-14
-1.53686e-18
-2.21076e-14
-1.52491e-18
-2.19145e-14
-1.51276e-18
-2.17231e-14
-1.50043e-18
-2.15333e-14
-2.13452e-14
-1.48793e-18
-7.51288e-20
-4.26902e-14
-1.49473e-19
-4.23173e-14
-2.22919e-19
-4.19476e-14
-2.95356e-19
-4.15811e-14
-3.66684e-19
-4.12179e-14
-4.3681e-19
-4.08578e-14
-5.05644e-19
-4.05009e-14
-5.73107e-19
-4.01471e-14
-6.39125e-19
-3.97964e-14
-7.0363e-19
-3.94488e-14
-7.66561e-19
-3.91042e-14
-8.27865e-19
-3.87626e-14
-8.87492e-19
-3.8424e-14
-9.45399e-19
-3.80883e-14
-1.00155e-18
-3.77556e-14
-1.05592e-18
-3.74258e-14
-1.10847e-18
-3.70988e-14
-1.15918e-18
-3.67748e-14
-1.20805e-18
-3.64535e-14
-1.25506e-18
-3.61351e-14
-1.3002e-18
-3.58194e-14
-1.34346e-18
-3.55065e-14
-1.38486e-18
-3.51963e-14
-1.4244e-18
-3.48889e-14
-1.46207e-18
-3.45841e-14
-1.49791e-18
-3.4282e-14
-1.53192e-18
-3.39825e-14
-1.56411e-18
-3.36857e-14
-1.59452e-18
-3.33914e-14
-1.62316e-18
-3.30997e-14
-1.65005e-18
-3.28106e-14
-1.67524e-18
-3.2524e-14
-1.69874e-18
-3.22398e-14
-1.72058e-18
-3.19582e-14
-1.74081e-18
-3.1679e-14
-1.75944e-18
-3.14023e-14
-1.77653e-18
-3.1128e-14
-1.7921e-18
-3.08561e-14
-1.80619e-18
-3.05865e-14
-1.81884e-18
-3.03193e-14
-1.83008e-18
-3.00545e-14
-1.83997e-18
-2.97919e-14
-1.84853e-18
-2.95317e-14
-1.85581e-18
-2.92737e-14
-1.86184e-18
-2.9018e-14
-1.86667e-18
-2.87645e-14
-1.87034e-18
-2.85132e-14
-1.87288e-18
-2.82642e-14
-1.87434e-18
-2.80173e-14
-1.87475e-18
-2.77725e-14
-1.87416e-18
-2.75299e-14
-1.87261e-18
-2.72894e-14
-1.87012e-18
-2.7051e-14
-1.86675e-18
-2.68147e-14
-1.86253e-18
-2.65805e-14
-1.85749e-18
-2.63483e-14
-1.85167e-18
-2.61181e-14
-1.8451e-18
-2.589e-14
-1.83783e-18
-2.56638e-14
-1.82989e-18
-2.54396e-14
-1.8213e-18
-2.52174e-14
-1.81211e-18
-2.49971e-14
-1.80234e-18
-2.47787e-14
-1.79203e-18
-2.45623e-14
-1.7812e-18
-2.43477e-14
-1.76988e-18
-2.4135e-14
-1.75811e-18
-2.39242e-14
-1.74592e-18
-2.37152e-14
-1.73332e-18
-2.3508e-14
-1.72035e-18
-2.33027e-14
-1.70703e-18
-2.30991e-14
-1.69338e-18
-2.28973e-14
-1.67944e-18
-2.26973e-14
-1.66521e-18
-2.2499e-14
-1.65073e-18
-2.23025e-14
-1.63602e-18
-2.21077e-14
-1.6211e-18
-2.19145e-14
-1.60598e-18
-2.17231e-14
-1.59069e-18
-2.15333e-14
-2.13452e-14
-1.57525e-18
-8.91666e-20
-4.26901e-14
-1.77392e-19
-4.23172e-14
-2.64529e-19
-4.19475e-14
-3.50441e-19
-4.15811e-14
-4.34998e-19
-4.12178e-14
-5.1808e-19
-4.08578e-14
-5.99577e-19
-4.05008e-14
-6.79385e-19
-4.0147e-14
-7.57411e-19
-3.97963e-14
-8.33569e-19
-3.94487e-14
-9.07783e-19
-3.91041e-14
-9.79982e-19
-3.87625e-14
-1.05011e-18
-3.84239e-14
-1.1181e-18
-3.80882e-14
-1.18392e-18
-3.77555e-14
-1.24753e-18
-3.74257e-14
-1.30889e-18
-3.70988e-14
-1.36798e-18
-3.67747e-14
-1.42477e-18
-3.64534e-14
-1.47926e-18
-3.6135e-14
-1.53144e-18
-3.58194e-14
-1.5813e-18
-3.55065e-14
-1.62885e-18
-3.51963e-14
-1.67409e-18
-3.48888e-14
-1.71704e-18
-3.45841e-14
-1.75772e-18
-3.4282e-14
-1.79613e-18
-3.39825e-14
-1.83231e-18
-3.36856e-14
-1.86629e-18
-3.33914e-14
-1.89809e-18
-3.30997e-14
-1.92775e-18
-3.28105e-14
-1.95531e-18
-3.25239e-14
-1.98079e-18
-3.22398e-14
-2.00425e-18
-3.19582e-14
-2.02572e-18
-3.1679e-14
-2.04525e-18
-3.14023e-14
-2.06289e-18
-3.1128e-14
-2.07868e-18
-3.08561e-14
-2.09267e-18
-3.05865e-14
-2.1049e-18
-3.03193e-14
-2.11543e-18
-3.00545e-14
-2.12432e-18
-2.97919e-14
-2.1316e-18
-2.95317e-14
-2.13733e-18
-2.92737e-14
-2.14156e-18
-2.9018e-14
-2.14435e-18
-2.87645e-14
-2.14574e-18
-2.85132e-14
-2.14579e-18
-2.82642e-14
-2.14454e-18
-2.80173e-14
-2.14205e-18
-2.77725e-14
-2.13837e-18
-2.75299e-14
-2.13354e-18
-2.72894e-14
-2.12762e-18
-2.7051e-14
-2.12065e-18
-2.68147e-14
-2.11269e-18
-2.65805e-14
-2.10377e-18
-2.63483e-14
-2.09394e-18
-2.61181e-14
-2.08325e-18
-2.589e-14
-2.07175e-18
-2.56638e-14
-2.05947e-18
-2.54396e-14
-2.04646e-18
-2.52174e-14
-2.03276e-18
-2.49971e-14
-2.01841e-18
-2.47787e-14
-2.00344e-18
-2.45623e-14
-1.9879e-18
-2.43477e-14
-1.97183e-18
-2.4135e-14
-1.95525e-18
-2.39242e-14
-1.93821e-18
-2.37152e-14
-1.92073e-18
-2.3508e-14
-1.90286e-18
-2.33027e-14
-1.88461e-18
-2.30991e-14
-1.86603e-18
-2.28973e-14
-1.84714e-18
-2.26973e-14
-1.82797e-18
-2.2499e-14
-1.80855e-18
-2.23025e-14
-1.7889e-18
-2.21077e-14
-1.76904e-18
-2.19146e-14
-1.74902e-18
-2.17231e-14
-1.72884e-18
-2.15334e-14
-2.13452e-14
-1.70852e-18
-1.10059e-19
-4.269e-14
-2.18941e-19
-4.23171e-14
-3.26453e-19
-4.19474e-14
-4.32411e-19
-4.1581e-14
-5.36644e-19
-4.12177e-14
-6.38993e-19
-4.08577e-14
-7.39311e-19
-4.05007e-14
-8.37461e-19
-4.0147e-14
-9.3332e-19
-3.97962e-14
-1.02677e-18
-3.94486e-14
-1.11772e-18
-3.9104e-14
-1.20607e-18
-3.87624e-14
-1.29174e-18
-3.84238e-14
-1.37467e-18
-3.80882e-14
-1.45478e-18
-3.77554e-14
-1.53203e-18
-3.74256e-14
-1.60638e-18
-3.70987e-14
-1.67779e-18
-3.67746e-14
-1.74625e-18
-3.64534e-14
-1.81172e-18
-3.61349e-14
-1.87421e-18
-3.58193e-14
-1.93371e-18
-3.55064e-14
-1.99023e-18
-3.51962e-14
-2.04378e-18
-3.48888e-14
-2.09437e-18
-3.4584e-14
-2.14202e-18
-3.42819e-14
-2.18678e-18
-3.39824e-14
-2.22866e-18
-3.36856e-14
-2.26771e-18
-3.33913e-14
-2.30397e-18
-3.30996e-14
-2.33748e-18
-3.28105e-14
-2.36829e-18
-3.25239e-14
-2.39646e-18
-3.22398e-14
-2.42204e-18
-3.19582e-14
-2.44509e-18
-3.1679e-14
-2.46566e-18
-3.14023e-14
-2.48382e-18
-3.1128e-14
-2.49963e-18
-3.0856e-14
-2.51316e-18
-3.05865e-14
-2.52447e-18
-3.03193e-14
-2.53363e-18
-3.00545e-14
-2.54071e-18
-2.97919e-14
-2.54577e-18
-2.95317e-14
-2.54889e-18
-2.92737e-14
-2.55013e-18
-2.9018e-14
-2.54956e-18
-2.87645e-14
-2.54724e-18
-2.85132e-14
-2.54326e-18
-2.82642e-14
-2.53767e-18
-2.80173e-14
-2.53054e-18
-2.77725e-14
-2.52194e-18
-2.75299e-14
-2.51194e-18
-2.72894e-14
-2.50059e-18
-2.7051e-14
-2.48797e-18
-2.68147e-14
-2.47414e-18
-2.65805e-14
-2.45915e-18
-2.63483e-14
-2.44307e-18
-2.61181e-14
-2.42595e-18
-2.589e-14
-2.40786e-18
-2.56638e-14
-2.38886e-18
-2.54396e-14
-2.36899e-18
-2.52174e-14
-2.34831e-18
-2.49971e-14
-2.32687e-18
-2.47788e-14
-2.30473e-18
-2.45623e-14
-2.28192e-18
-2.43477e-14
-2.25852e-18
-2.41351e-14
-2.23454e-18
-2.39242e-14
-2.21006e-18
-2.37152e-14
-2.18509e-18
-2.35081e-14
-2.1597e-18
-2.33027e-14
-2.13392e-18
-2.30992e-14
-2.10778e-18
-2.28974e-14
-2.08133e-18
-2.26973e-14
-2.0546e-18
-2.24991e-14
-2.02763e-18
-2.23025e-14
-2.00045e-18
-2.21077e-14
-1.9731e-18
-2.19146e-14
-1.94559e-18
-2.17231e-14
-1.91797e-18
-2.15334e-14
-2.13453e-14
-1.89027e-18
-1.40021e-19
-4.26898e-14
-2.78527e-19
-4.23169e-14
-4.15252e-19
-4.19473e-14
-5.49947e-19
-4.15808e-14
-6.82379e-19
-4.12176e-14
-8.1233e-19
-4.08575e-14
-9.39599e-19
-4.05006e-14
-1.064e-18
-4.01468e-14
-1.18537e-18
-3.97961e-14
-1.30355e-18
-3.94485e-14
-1.4184e-18
-3.91039e-14
-1.5298e-18
-3.87623e-14
-1.63764e-18
-3.84237e-14
-1.74183e-18
-3.8088e-14
-1.84227e-18
-3.77553e-14
-1.93891e-18
-3.74255e-14
-2.03169e-18
-3.70986e-14
-2.12056e-18
-3.67745e-14
-2.2055e-18
-3.64533e-14
-2.28647e-18
-3.61349e-14
-2.36348e-18
-3.58192e-14
-2.43651e-18
-3.55063e-14
-2.50557e-18
-3.51962e-14
-2.5707e-18
-3.48887e-14
-2.6319e-18
-3.4584e-14
-2.68921e-18
-3.42819e-14
-2.74267e-18
-3.39824e-14
-2.79233e-18
-3.36855e-14
-2.83825e-18
-3.33913e-14
-2.88047e-18
-3.30996e-14
-2.91907e-18
-3.28105e-14
-2.95411e-18
-3.25239e-14
-2.98567e-18
-3.22398e-14
-3.01382e-18
-3.19581e-14
-3.03864e-18
-3.1679e-14
-3.06021e-18
-3.14022e-14
-3.07863e-18
-3.11279e-14
-3.09397e-18
-3.0856e-14
-3.10633e-18
-3.05865e-14
-3.1158e-18
-3.03193e-14
-3.12247e-18
-3.00545e-14
-3.12643e-18
-2.97919e-14
-3.12779e-18
-2.95317e-14
-3.12662e-18
-2.92737e-14
-3.12303e-18
-2.9018e-14
-3.11711e-18
-2.87645e-14
-3.10896e-18
-2.85132e-14
-3.09866e-18
-2.82642e-14
-3.08632e-18
-2.80173e-14
-3.07202e-18
-2.77725e-14
-3.05585e-18
-2.75299e-14
-3.0379e-18
-2.72894e-14
-3.01827e-18
-2.70511e-14
-2.99703e-18
-2.68148e-14
-2.97428e-18
-2.65805e-14
-2.95009e-18
-2.63483e-14
-2.92455e-18
-2.61182e-14
-2.89774e-18
-2.589e-14
-2.86974e-18
-2.56639e-14
-2.84062e-18
-2.54397e-14
-2.81046e-18
-2.52174e-14
-2.77933e-18
-2.49972e-14
-2.7473e-18
-2.47788e-14
-2.71444e-18
-2.45623e-14
-2.68081e-18
-2.43478e-14
-2.64648e-18
-2.41351e-14
-2.61152e-18
-2.39243e-14
-2.57597e-18
-2.37153e-14
-2.5399e-18
-2.35081e-14
-2.50337e-18
-2.33027e-14
-2.46643e-18
-2.30992e-14
-2.42912e-18
-2.28974e-14
-2.39151e-18
-2.26974e-14
-2.35363e-18
-2.24991e-14
-2.31554e-18
-2.23026e-14
-2.27727e-18
-2.21077e-14
-2.23888e-18
-2.19146e-14
-2.20039e-18
-2.17232e-14
-2.16185e-18
-2.15334e-14
-2.13453e-14
-2.12329e-18
-1.8232e-19
-4.26897e-14
-3.62643e-19
-4.23167e-14
-5.406e-19
-4.19471e-14
-7.15846e-19
-4.15806e-14
-8.88055e-19
-4.12174e-14
-1.05693e-18
-4.08574e-14
-1.22219e-18
-4.05005e-14
-1.38357e-18
-4.01467e-14
-1.54085e-18
-3.9796e-14
-1.69381e-18
-3.94483e-14
-1.84226e-18
-3.91037e-14
-1.98603e-18
-3.87622e-14
-2.12497e-18
-3.84236e-14
-2.25895e-18
-3.80879e-14
-2.38785e-18
-3.77552e-14
-2.51158e-18
-3.74254e-14
-2.63006e-18
-3.70985e-14
-2.74324e-18
-3.67744e-14
-2.85107e-18
-3.64532e-14
-2.95353e-18
-3.61348e-14
-3.0506e-18
-3.58191e-14
-3.14228e-18
-3.55062e-14
-3.22858e-18
-3.51961e-14
-3.30953e-18
-3.48886e-14
-3.38518e-18
-3.45839e-14
-3.45555e-18
-3.42818e-14
-3.52073e-18
-3.39823e-14
-3.58076e-18
-3.36855e-14
-3.63573e-18
-3.33912e-14
-3.68572e-18
-3.30996e-14
-3.73083e-18
-3.28104e-14
-3.77114e-18
-3.25238e-14
-3.80677e-18
-3.22397e-14
-3.83781e-18
-3.19581e-14
-3.86439e-18
-3.16789e-14
-3.88662e-18
-3.14022e-14
-3.90462e-18
-3.11279e-14
-3.91852e-18
-3.0856e-14
-3.92843e-18
-3.05865e-14
-3.9345e-18
-3.03193e-14
-3.93685e-18
-3.00545e-14
-3.9356e-18
-2.97919e-14
-3.9309e-18
-2.95317e-14
-3.92287e-18
-2.92737e-14
-3.91164e-18
-2.9018e-14
-3.89735e-18
-2.87645e-14
-3.88013e-18
-2.85133e-14
-3.86011e-18
-2.82642e-14
-3.83742e-18
-2.80173e-14
-3.81218e-18
-2.77726e-14
-3.78452e-18
-2.753e-14
-3.75457e-18
-2.72895e-14
-3.72244e-18
-2.70511e-14
-3.68827e-18
-2.68148e-14
-3.65216e-18
-2.65806e-14
-3.61423e-18
-2.63484e-14
-3.5746e-18
-2.61182e-14
-3.53337e-18
-2.58901e-14
-3.49065e-18
-2.56639e-14
-3.44656e-18
-2.54397e-14
-3.40118e-18
-2.52175e-14
-3.35462e-18
-2.49972e-14
-3.30698e-18
-2.47788e-14
-3.25835e-18
-2.45624e-14
-3.20882e-18
-2.43478e-14
-3.15847e-18
-2.41351e-14
-3.10739e-18
-2.39243e-14
-3.05566e-18
-2.37153e-14
-3.00337e-18
-2.35082e-14
-2.95058e-18
-2.33028e-14
-2.89737e-18
-2.30992e-14
-2.8438e-18
-2.28975e-14
-2.78996e-18
-2.26974e-14
-2.73588e-18
-2.24992e-14
-2.68165e-18
-2.23026e-14
-2.62732e-18
-2.21078e-14
-2.57294e-18
-2.19147e-14
-2.51857e-18
-2.17232e-14
-2.46425e-18
-2.15335e-14
-2.13454e-14
-2.41004e-18
-2.41704e-19
-4.26894e-14
-4.8073e-19
-4.23165e-14
-7.16559e-19
-4.19468e-14
-9.48706e-19
-4.15804e-14
-1.17672e-18
-4.12172e-14
-1.40017e-18
-4.08571e-14
-1.61867e-18
-4.05002e-14
-1.83186e-18
-4.01465e-14
-2.03941e-18
-3.97958e-14
-2.24102e-18
-3.94481e-14
-2.43643e-18
-3.91035e-14
-2.6254e-18
-3.8762e-14
-2.80771e-18
-3.84234e-14
-2.98318e-18
-3.80877e-14
-3.15165e-18
-3.7755e-14
-3.31301e-18
-3.74252e-14
-3.46713e-18
-3.70983e-14
-3.61394e-18
-3.67743e-14
-3.75339e-18
-3.6453e-14
-3.88542e-18
-3.61346e-14
-4.01003e-18
-3.5819e-14
-4.12723e-18
-3.55061e-14
-4.23702e-18
-3.5196e-14
-4.33946e-18
-3.48885e-14
-4.43459e-18
-3.45838e-14
-4.52249e-18
-3.42817e-14
-4.60324e-18
-3.39822e-14
-4.67693e-18
-3.36854e-14
-4.74369e-18
-3.33912e-14
-4.80362e-18
-3.30995e-14
-4.85686e-18
-3.28104e-14
-4.90354e-18
-3.25238e-14
-4.94383e-18
-3.22397e-14
-4.97786e-18
-3.19581e-14
-5.00581e-18
-3.16789e-14
-5.02784e-18
-3.14022e-14
-5.04412e-18
-3.11279e-14
-5.05483e-18
-3.0856e-14
-5.06014e-18
-3.05865e-14
-5.06025e-18
-3.03193e-14
-5.05533e-18
-3.00545e-14
-5.04557e-18
-2.97919e-14
-5.03115e-18
-2.95317e-14
-5.01227e-18
-2.92737e-14
-4.98911e-18
-2.9018e-14
-4.96186e-18
-2.87646e-14
-4.9307e-18
-2.85133e-14
-4.89582e-18
-2.82642e-14
-4.8574e-18
-2.80173e-14
-4.81561e-18
-2.77726e-14
-4.77064e-18
-2.753e-14
-4.72267e-18
-2.72895e-14
-4.67186e-18
-2.70511e-14
-4.61838e-18
-2.68148e-14
-4.56239e-18
-2.65806e-14
-4.50407e-18
-2.63484e-14
-4.44357e-18
-2.61183e-14
-4.38103e-18
-2.58901e-14
-4.31662e-18
-2.5664e-14
-4.25048e-18
-2.54398e-14
-4.18275e-18
-2.52176e-14
-4.11356e-18
-2.49973e-14
-4.04306e-18
-2.47789e-14
-3.97137e-18
-2.45625e-14
-3.89861e-18
-2.43479e-14
-3.82491e-18
-2.41352e-14
-3.75038e-18
-2.39244e-14
-3.67513e-18
-2.37154e-14
-3.59928e-18
-2.35082e-14
-3.52292e-18
-2.33029e-14
-3.44615e-18
-2.30993e-14
-3.36907e-18
-2.28975e-14
-3.29177e-18
-2.26975e-14
-3.21434e-18
-2.24992e-14
-3.13685e-18
-2.23027e-14
-3.05939e-18
-2.21079e-14
-2.98203e-18
-2.19148e-14
-2.90485e-18
-2.17233e-14
-2.82791e-18
-2.15336e-14
-2.13454e-14
-2.75127e-18
-3.25036e-19
-4.26891e-14
-6.46432e-19
-4.23162e-14
-9.63453e-19
-4.19465e-14
-1.27541e-18
-4.15801e-14
-1.58167e-18
-4.12169e-14
-1.88162e-18
-4.08568e-14
-2.17471e-18
-4.04999e-14
-2.46044e-18
-4.01462e-14
-2.73834e-18
-3.97955e-14
-3.00798e-18
-3.94479e-14
-3.26899e-18
-3.91033e-14
-3.52103e-18
-3.87617e-14
-3.76381e-18
-3.84231e-14
-3.99706e-18
-3.80875e-14
-4.22057e-18
-3.77548e-14
-4.43415e-18
-3.7425e-14
-4.63766e-18
-3.70981e-14
-4.83098e-18
-3.67741e-14
-5.01404e-18
-3.64529e-14
-5.18677e-18
-3.61345e-14
-5.34917e-18
-3.58188e-14
-5.50124e-18
-3.5506e-14
-5.64301e-18
-3.51958e-14
-5.77454e-18
-3.48884e-14
-5.89592e-18
-3.45837e-14
-6.00724e-18
-3.42816e-14
-6.10862e-18
-3.39821e-14
-6.20022e-18
-3.36853e-14
-6.28219e-18
-3.33911e-14
-6.3547e-18
-3.30994e-14
-6.41794e-18
-3.28103e-14
-6.47212e-18
-3.25237e-14
-6.51744e-18
-3.22396e-14
-6.55413e-18
-3.1958e-14
-6.58243e-18
-3.16789e-14
-6.60257e-18
-3.14022e-14
-6.6148e-18
-3.11279e-14
-6.61938e-18
-3.0856e-14
-6.61655e-18
-3.05865e-14
-6.6066e-18
-3.03193e-14
-6.58976e-18
-3.00545e-14
-6.56633e-18
-2.9792e-14
-6.53655e-18
-2.95317e-14
-6.50071e-18
-2.92738e-14
-6.45906e-18
-2.90181e-14
-6.41188e-18
-2.87646e-14
-6.35942e-18
-2.85133e-14
-6.30195e-18
-2.82643e-14
-6.23974e-18
-2.80174e-14
-6.17303e-18
-2.77727e-14
-6.10208e-18
-2.75301e-14
-6.02714e-18
-2.72896e-14
-5.94845e-18
-2.70512e-14
-5.86625e-18
-2.68149e-14
-5.78078e-18
-2.65807e-14
-5.69226e-18
-2.63485e-14
-5.60092e-18
-2.61184e-14
-5.50698e-18
-2.58902e-14
-5.41064e-18
-2.56641e-14
-5.31212e-18
-2.54399e-14
-5.21161e-18
-2.52177e-14
-5.1093e-18
-2.49974e-14
-5.00539e-18
-2.4779e-14
-4.90006e-18
-2.45626e-14
-4.79347e-18
-2.4348e-14
-4.68579e-18
-2.41353e-14
-4.5772e-18
-2.39245e-14
-4.46784e-18
-2.37155e-14
-4.35786e-18
-2.35083e-14
-4.2474e-18
-2.3303e-14
-4.1366e-18
-2.30994e-14
-4.0256e-18
-2.28976e-14
-3.91451e-18
-2.26976e-14
-3.80346e-18
-2.24994e-14
-3.69255e-18
-2.23028e-14
-3.5819e-18
-2.2108e-14
-3.47161e-18
-2.19149e-14
-3.36177e-18
-2.17234e-14
-3.25248e-18
-2.15337e-14
-2.13456e-14
-3.14381e-18
-4.42216e-19
-4.26886e-14
-8.7943e-19
-4.23157e-14
-1.3106e-18
-4.19461e-14
-1.73474e-18
-4.15797e-14
-2.15095e-18
-4.12165e-14
-2.55836e-18
-4.08564e-14
-2.95619e-18
-4.04995e-14
-3.34371e-18
-4.01458e-14
-3.72027e-18
-3.97951e-14
-4.08526e-18
-3.94475e-14
-4.43815e-18
-3.91029e-14
-4.77845e-18
-3.87614e-14
-5.10574e-18
-3.84228e-14
-5.41966e-18
-3.80872e-14
-5.71989e-18
-3.77545e-14
-6.00618e-18
-3.74247e-14
-6.27831e-18
-3.70979e-14
-6.53613e-18
-3.67738e-14
-6.77952e-18
-3.64526e-14
-7.00842e-18
-3.61342e-14
-7.22279e-18
-3.58186e-14
-7.42266e-18
-3.55058e-14
-7.60806e-18
-3.51956e-14
-7.7791e-18
-3.48882e-14
-7.93588e-18
-3.45835e-14
-8.07855e-18
-3.42814e-14
-8.2073e-18
-3.3982e-14
-8.32234e-18
-3.36852e-14
-8.42389e-18
-3.3391e-14
-8.5122e-18
-3.30993e-14
-8.58756e-18
-3.28102e-14
-8.65024e-18
-3.25237e-14
-8.70057e-18
-3.22396e-14
-8.73886e-18
-3.1958e-14
-8.76545e-18
-3.16789e-14
-8.7807e-18
-3.14022e-14
-8.78495e-18
-3.11279e-14
-8.77857e-18
-3.0856e-14
-8.76194e-18
-3.05865e-14
-8.73544e-18
-3.03193e-14
-8.69944e-18
-3.00545e-14
-8.65433e-18
-2.9792e-14
-8.60049e-18
-2.95318e-14
-8.53832e-18
-2.92738e-14
-8.4682e-18
-2.90181e-14
-8.39051e-18
-2.87647e-14
-8.30563e-18
-2.85134e-14
-8.21395e-18
-2.82644e-14
-8.11582e-18
-2.80175e-14
-8.01163e-18
-2.77728e-14
-7.90173e-18
-2.75302e-14
-7.78649e-18
-2.72897e-14
-7.66625e-18
-2.70513e-14
-7.54135e-18
-2.68151e-14
-7.41213e-18
-2.65808e-14
-7.27891e-18
-2.63486e-14
-7.14202e-18
-2.61185e-14
-7.00176e-18
-2.58904e-14
-6.85844e-18
-2.56642e-14
-6.71235e-18
-2.544e-14
-6.56377e-18
-2.52178e-14
-6.41298e-18
-2.49975e-14
-6.26023e-18
-2.47792e-14
-6.10579e-18
-2.45627e-14
-5.9499e-18
-2.43482e-14
-5.7928e-18
-2.41355e-14
-5.63471e-18
-2.39247e-14
-5.47585e-18
-2.37157e-14
-5.31643e-18
-2.35085e-14
-5.15664e-18
-2.33031e-14
-4.99669e-18
-2.30996e-14
-4.83674e-18
-2.28978e-14
-4.67698e-18
-2.26978e-14
-4.51756e-18
-2.24995e-14
-4.35864e-18
-2.2303e-14
-4.20037e-18
-2.21081e-14
-4.04289e-18
-2.1915e-14
-3.88633e-18
-2.17236e-14
-3.73081e-18
-2.15338e-14
-2.13457e-14
-3.57644e-18
-6.07505e-19
-4.2688e-14
-1.20808e-18
-4.23151e-14
-1.80023e-18
-4.19455e-14
-2.38256e-18
-4.15791e-14
-2.95377e-18
-4.12159e-14
-3.51263e-18
-4.08559e-14
-4.05802e-18
-4.0499e-14
-4.58891e-18
-4.01452e-14
-5.10435e-18
-3.97946e-14
-5.60348e-18
-3.9447e-14
-6.08552e-18
-3.91024e-14
-6.5498e-18
-3.87609e-14
-6.99571e-18
-3.84224e-14
-7.42271e-18
-3.80868e-14
-7.83038e-18
-3.77541e-14
-8.21833e-18
-3.74244e-14
-8.58627e-18
-3.70975e-14
-8.93396e-18
-3.67735e-14
-9.26125e-18
-3.64523e-14
-9.56803e-18
-3.61339e-14
-9.85428e-18
-3.58183e-14
-1.012e-17
-3.55055e-14
-1.03653e-17
-3.51954e-14
-1.05902e-17
-3.4888e-14
-1.0795e-17
-3.45833e-14
-1.09799e-17
-3.42813e-14
-1.11451e-17
-3.39818e-14
-1.12909e-17
-3.36851e-14
-1.14176e-17
-3.33909e-14
-1.15257e-17
-3.30992e-14
-1.16156e-17
-3.28101e-14
-1.16875e-17
-3.25236e-14
-1.17421e-17
-3.22395e-14
-1.17797e-17
-3.1958e-14
-1.18009e-17
-3.16788e-14
-1.18062e-17
-3.14022e-14
-1.1796e-17
-3.11279e-14
-1.17709e-17
-3.0856e-14
-1.17315e-17
-3.05865e-14
-1.16783e-17
-3.03194e-14
-1.16119e-17
-3.00546e-14
-1.15328e-17
-2.97921e-14
-1.14415e-17
-2.95319e-14
-1.13387e-17
-2.92739e-14
-1.12249e-17
-2.90183e-14
-1.11007e-17
-2.87648e-14
-1.09665e-17
-2.85136e-14
-1.0823e-17
-2.82645e-14
-1.06707e-17
-2.80176e-14
-1.05102e-17
-2.77729e-14
-1.03419e-17
-2.75304e-14
-1.01663e-17
-2.72899e-14
-9.98409e-18
-2.70515e-14
-9.79562e-18
-2.68152e-14
-9.6014e-18
-2.6581e-14
-9.40191e-18
-2.63488e-14
-9.1976e-18
-2.61187e-14
-8.98894e-18
-2.58906e-14
-8.77633e-18
-2.56644e-14
-8.56022e-18
-2.54402e-14
-8.34099e-18
-2.5218e-14
-8.11905e-18
-2.49977e-14
-7.89477e-18
-2.47794e-14
-7.66851e-18
-2.45629e-14
-7.44062e-18
-2.43484e-14
-7.21144e-18
-2.41357e-14
-6.9813e-18
-2.39249e-14
-6.75048e-18
-2.37159e-14
-6.5193e-18
-2.35087e-14
-6.28803e-18
-2.33034e-14
-6.05694e-18
-2.30998e-14
-5.82628e-18
-2.2898e-14
-5.59628e-18
-2.2698e-14
-5.36719e-18
-2.24997e-14
-5.13921e-18
-2.23032e-14
-4.91254e-18
-2.21084e-14
-4.68739e-18
-2.19152e-14
-4.46392e-18
-2.17238e-14
-4.2423e-18
-2.1534e-14
-2.13459e-14
-4.0227e-18
-8.41394e-19
-4.26872e-14
-1.67312e-18
-4.23143e-14
-2.49305e-18
-4.19447e-14
-3.29918e-18
-4.15783e-14
-4.08966e-18
-4.12151e-14
-4.86273e-18
-4.08551e-14
-5.61678e-18
-4.04982e-14
-6.35034e-18
-4.01445e-14
-7.06204e-18
-3.97939e-14
-7.75066e-18
-3.94463e-14
-8.41509e-18
-3.91018e-14
-9.05433e-18
-3.87603e-14
-9.66752e-18
-3.84217e-14
-1.02539e-17
-3.80862e-14
-1.08128e-17
-3.77535e-14
-1.13437e-17
-3.74238e-14
-1.18462e-17
-3.7097e-14
-1.232e-17
-3.6773e-14
-1.27647e-17
-3.64519e-14
-1.31802e-17
-3.61335e-14
-1.35666e-17
-3.58179e-14
-1.39237e-17
-3.55051e-14
-1.42518e-17
-3.51951e-14
-1.45509e-17
-3.48877e-14
-1.48214e-17
-3.4583e-14
-1.50635e-17
-3.4281e-14
-1.52776e-17
-3.39816e-14
-1.54642e-17
-3.36849e-14
-1.56237e-17
-3.33907e-14
-1.57566e-17
-3.30991e-14
-1.58635e-17
-3.281e-14
-1.59451e-17
-3.25235e-14
-1.6002e-17
-3.22395e-14
-1.60348e-17
-3.19579e-14
-1.60443e-17
-3.16788e-14
-1.60312e-17
-3.14022e-14
-1.59963e-17
-3.11279e-14
-1.59404e-17
-3.08561e-14
-1.58642e-17
-3.05866e-14
-1.57685e-17
-3.03195e-14
-1.56542e-17
-3.00547e-14
-1.55221e-17
-2.97922e-14
-1.53729e-17
-2.9532e-14
-1.52076e-17
-2.92741e-14
-1.50269e-17
-2.90184e-14
-1.48316e-17
-2.8765e-14
-1.46226e-17
-2.85138e-14
-1.44007e-17
-2.82647e-14
-1.41666e-17
-2.80179e-14
-1.39211e-17
-2.77732e-14
-1.3665e-17
-2.75306e-14
-1.33991e-17
-2.72902e-14
-1.3124e-17
-2.70518e-14
-1.28406e-17
-2.68155e-14
-1.25495e-17
-2.65813e-14
-1.22514e-17
-2.63491e-14
-1.1947e-17
-2.6119e-14
-1.16369e-17
-2.58909e-14
-1.13218e-17
-2.56647e-14
-1.10022e-17
-2.54406e-14
-1.06787e-17
-2.52183e-14
-1.0352e-17
-2.49981e-14
-1.00225e-17
-2.47797e-14
-9.69082e-18
-2.45633e-14
-9.35741e-18
-2.43487e-14
-9.02275e-18
-2.4136e-14
-8.68732e-18
-2.39252e-14
-8.35155e-18
-2.37162e-14
-8.01586e-18
-2.35091e-14
-7.68064e-18
-2.33037e-14
-7.34627e-18
-2.31002e-14
-7.01312e-18
-2.28984e-14
-6.68151e-18
-2.26983e-14
-6.35176e-18
-2.25001e-14
-6.02418e-18
-2.23035e-14
-5.69905e-18
-2.21087e-14
-5.37663e-18
-2.19156e-14
-5.05717e-18
-2.17241e-14
-4.7409e-18
-2.15344e-14
-2.13462e-14
-4.42803e-18
-1.17318e-18
-4.2686e-14
-2.3328e-18
-4.23131e-14
-3.47585e-18
-4.19435e-14
-4.59948e-18
-4.15772e-14
-5.70101e-18
-4.1214e-14
-6.77797e-18
-4.0854e-14
-7.82804e-18
-4.04972e-14
-8.84912e-18
-4.01435e-14
-9.83925e-18
-3.97929e-14
-1.07967e-17
-3.94454e-14
-1.17198e-17
-3.91009e-14
-1.26071e-17
-3.87594e-14
-1.34575e-17
-3.84209e-14
-1.42697e-17
-3.80854e-14
-1.50429e-17
-3.77528e-14
-1.57762e-17
-3.74231e-14
-1.6469e-17
-3.70963e-14
-1.71209e-17
-3.67723e-14
-1.77313e-17
-3.64512e-14
-1.83002e-17
-3.61329e-14
-1.88273e-17
-3.58174e-14
-1.93127e-17
-3.55047e-14
-1.97566e-17
-3.51946e-14
-2.0159e-17
-3.48873e-14
-2.05205e-17
-3.45827e-14
-2.08413e-17
-3.42807e-14
-2.11221e-17
-3.39814e-14
-2.13634e-17
-3.36846e-14
-2.15659e-17
-3.33905e-14
-2.17303e-17
-3.30989e-14
-2.18576e-17
-3.28099e-14
-2.19485e-17
-3.25234e-14
-2.2004e-17
-3.22394e-14
-2.20251e-17
-3.19579e-14
-2.20129e-17
-3.16788e-14
-2.19683e-17
-3.14022e-14
-2.18925e-17
-3.1128e-14
-2.17867e-17
-3.08562e-14
-2.1652e-17
-3.05867e-14
-2.14895e-17
-3.03196e-14
-2.13005e-17
-3.00549e-14
-2.10861e-17
-2.97924e-14
-2.08476e-17
-2.95323e-14
-2.05862e-17
-2.92744e-14
-2.03031e-17
-2.90187e-14
-1.99995e-17
-2.87653e-14
-1.96765e-17
-2.85141e-14
-1.93354e-17
-2.82651e-14
-1.89774e-17
-2.80182e-14
-1.86036e-17
-2.77736e-14
-1.82151e-17
-2.7531e-14
-1.7813e-17
-2.72906e-14
-1.73985e-17
-2.70522e-14
-1.69726e-17
-2.6816e-14
-1.65364e-17
-2.65818e-14
-1.60908e-17
-2.63496e-14
-1.56368e-17
-2.61195e-14
-1.51755e-17
-2.58913e-14
-1.47077e-17
-2.56652e-14
-1.42344e-17
-2.5441e-14
-1.37563e-17
-2.52188e-14
-1.32743e-17
-2.49986e-14
-1.27893e-17
-2.47802e-14
-1.23019e-17
-2.45638e-14
-1.18129e-17
-2.43492e-14
-1.1323e-17
-2.41365e-14
-1.08329e-17
-2.39257e-14
-1.03432e-17
-2.37167e-14
-9.85455e-18
-2.35096e-14
-9.36743e-18
-2.33042e-14
-8.88243e-18
-2.31006e-14
-8.40004e-18
-2.28989e-14
-7.92075e-18
-2.26988e-14
-7.44502e-18
-2.25005e-14
-6.97325e-18
-2.2304e-14
-6.50584e-18
-2.21092e-14
-6.04317e-18
-2.1916e-14
-5.58556e-18
-2.17246e-14
-5.13334e-18
-2.15348e-14
-2.13467e-14
-4.6868e-18
-1.64428e-18
-4.26844e-14
-3.26954e-18
-4.23115e-14
-4.87149e-18
-4.19419e-14
-6.4461e-18
-4.15756e-14
-7.98961e-18
-4.12125e-14
-9.49847e-18
-4.08525e-14
-1.09694e-17
-4.04957e-14
-1.23995e-17
-4.01421e-14
-1.37858e-17
-3.97915e-14
-1.51258e-17
-3.9444e-14
-1.64173e-17
-3.90996e-14
-1.76581e-17
-3.87581e-14
-1.88465e-17
-3.84197e-14
-1.99807e-17
-3.80842e-14
-2.10594e-17
-3.77517e-14
-2.20815e-17
-3.74221e-14
-2.30458e-17
-3.70953e-14
-2.39517e-17
-3.67714e-14
-2.47985e-17
-3.64504e-14
-2.55859e-17
-3.61322e-14
-2.63135e-17
-3.58167e-14
-2.69813e-17
-3.5504e-14
-2.75895e-17
-3.5194e-14
-2.81383e-17
-3.48868e-14
-2.86282e-17
-3.45822e-14
-2.90596e-17
-3.42803e-14
-2.94333e-17
-3.3981e-14
-2.97501e-17
-3.36843e-14
-3.00109e-17
-3.33902e-14
-3.02168e-17
-3.30987e-14
-3.0369e-17
-3.28098e-14
-3.04687e-17
-3.25233e-14
-3.05172e-17
-3.22394e-14
-3.0516e-17
-3.19579e-14
-3.04664e-17
-3.16789e-14
-3.03702e-17
-3.14023e-14
-3.02289e-17
-3.11281e-14
-3.00441e-17
-3.08564e-14
-2.98175e-17
-3.0587e-14
-2.95509e-17
-3.03199e-14
-2.9246e-17
-3.00552e-14
-2.89047e-17
-2.97928e-14
-2.85286e-17
-2.95326e-14
-2.81196e-17
-2.92748e-14
-2.76795e-17
-2.90192e-14
-2.72101e-17
-2.87658e-14
-2.67132e-17
-2.85146e-14
-2.61905e-17
-2.82656e-14
-2.56438e-17
-2.80188e-14
-2.50749e-17
-2.77741e-14
-2.44854e-17
-2.75316e-14
-2.3877e-17
-2.72912e-14
-2.32514e-17
-2.70528e-14
-2.26101e-17
-2.68166e-14
-2.19548e-17
-2.65824e-14
-2.12869e-17
-2.63503e-14
-2.06079e-17
-2.61201e-14
-1.99193e-17
-2.5892e-14
-1.92224e-17
-2.56659e-14
-1.85186e-17
-2.54417e-14
-1.78092e-17
-2.52195e-14
-1.70954e-17
-2.49993e-14
-1.63784e-17
-2.47809e-14
-1.56593e-17
-2.45645e-14
-1.49391e-17
-2.43499e-14
-1.42191e-17
-2.41373e-14
-1.35e-17
-2.39264e-14
-1.27829e-17
-2.37174e-14
-1.20685e-17
-2.35103e-14
-1.13579e-17
-2.33049e-14
-1.06516e-17
-2.31013e-14
-9.95056e-18
-2.28996e-14
-9.25532e-18
-2.26995e-14
-8.56657e-18
-2.25012e-14
-7.88491e-18
-2.23047e-14
-7.21087e-18
-2.21098e-14
-6.54498e-18
-2.19167e-14
-5.88771e-18
-2.17252e-14
-5.23949e-18
-2.15355e-14
-2.13473e-14
-4.60071e-18
-2.31219e-18
-4.26821e-14
-4.59769e-18
-4.23092e-14
-6.85055e-18
-4.19397e-14
-9.06515e-18
-4.15734e-14
-1.12362e-17
-4.12103e-14
-1.33588e-17
-4.08504e-14
-1.54284e-17
-4.04937e-14
-1.74405e-17
-4.01401e-14
-1.93914e-17
-3.97896e-14
-2.12774e-17
-3.94421e-14
-2.30951e-17
-3.90978e-14
-2.48416e-17
-3.87564e-14
-2.65141e-17
-3.8418e-14
-2.81103e-17
-3.80826e-14
-2.9628e-17
-3.77502e-14
-3.10654e-17
-3.74206e-14
-3.24209e-17
-3.7094e-14