/*--------------------------------*- C++ -*----------------------------------*\
  =========                 |
  \\      /  F ield         | OpenFOAM: The Open Source CFD Toolbox
   \\    /   O peration     | Website:  https://openfoam.org
    \\  /    A nd           | Version:  8
     \\/     M anipulation  |
\*---------------------------------------------------------------------------*/
FoamFile
{
    version     2.0;
    format      ascii;
    class       volScalarField;
    location    "4000";
    object      Sb;
}
// * * * * * * * * * * * * * * * * * * * * * * * * * * * * * * * * * * * * * //

dimensions      [0 0 0 0 0 0 0];

internalField   nonuniform List<scalar> 
12800
(
0.00200006
0.00200006
0.00200006
0.00200006
0.00200006
0.00200006
0.00200006
0.00200006
0.00200006
0.00200006
0.00200006
0.00200006
0.00200006
0.00200006
0.00200006
0.00200006
0.00200006
0.00200006
0.00200006
0.00200006
0.00200006
0.00200006
0.00200006
0.00200006
0.00200006
0.00200006
0.00200006
0.00200006
0.00200006
0.00200006
0.00200006
0.00200006
0.00200006
0.00200006
0.00200006
0.00200006
0.00200006
0.00200006
0.00200006
0.00200006
0.00200006
0.00200006
0.00200006
0.00200006
0.00200006
0.00200006
0.00200006
0.00200006
0.00200006
0.00200006
0.00200006
0.00200006
0.00200006
0.00200006
0.00200006
0.00200006
0.00200006
0.00200006
0.00200006
0.00200006
0.00200006
0.00200006
0.00200006
0.00200006
0.00200006
0.00200006
0.00200006
0.00200006
0.00200006
0.00200006
0.00200006
0.00200006
0.00200006
0.00200006
0.00200006
0.00200006
0.00200006
0.00200006
0.00200006
0.00200006
0.002
0.002
0.002
0.002
0.002
0.002
0.002
0.002
0.002
0.002
0.002
0.002
0.002
0.002
0.002
0.002
0.002
0.002
0.002
0.002
0.002
0.002
0.002
0.002
0.002
0.002
0.002
0.002
0.002
0.002
0.002
0.002
0.002
0.002
0.002
0.002
0.002
0.002
0.002
0.002
0.002
0.002
0.002
0.002
0.002
0.002
0.002
0.002
0.002
0.002
0.002
0.002
0.002
0.002
0.002
0.002
0.002
0.002
0.002
0.002
0.002
0.002
0.002
0.002
0.002
0.002
0.002
0.002
0.002
0.002
0.002
0.002
0.002
0.002
0.002
0.002
0.002
0.002
0.002
0.002
0.002
0.002
0.002
0.002
0.002
0.002
0.002
0.002
0.002
0.002
0.002
0.002
0.002
0.002
0.002
0.002
0.002
0.002
0.002
0.002
0.002
0.002
0.002
0.002
0.002
0.002
0.002
0.002
0.002
0.002
0.002
0.002
0.002
0.002
0.002
0.002
0.002
0.002
0.002
0.002
0.002
0.002
0.002
0.002
0.002
0.002
0.002
0.002
0.002
0.002
0.002
0.002
0.002
0.002
0.002
0.002
0.002
0.002
0.002
0.002
0.002
0.002
0.002
0.002
0.002
0.002
0.002
0.002
0.002
0.002
0.002
0.002
0.002
0.002
0.002
0.002
0.002
0.002
0.002
0.002
0.002
0.002
0.002
0.002
0.002
0.002
0.002
0.002
0.002
0.002
0.002
0.002
0.002
0.002
0.002
0.002
0.002
0.002
0.002
0.002
0.002
0.002
0.002
0.002
0.002
0.002
0.002
0.002
0.002
0.002
0.002
0.002
0.002
0.002
0.002
0.002
0.002
0.002
0.002
0.002
0.002
0.002
0.002
0.002
0.002
0.002
0.002
0.002
0.002
0.002
0.002
0.002
0.002
0.002
0.002
0.002
0.002
0.002
0.002
0.002
0.002
0.002
0.002
0.002
0.002
0.002
0.002
0.002
0.002
0.002
0.002
0.002
0.002
0.002
0.002
0.002
0.002
0.002
0.002
0.002
0.002
0.002
0.002
0.002
0.002
0.002
0.002
0.002
0.002
0.002
0.002
0.002
0.002
0.002
0.002
0.002
0.002
0.002
0.002
0.002
0.002
0.002
0.002
0.002
0.002
0.002
0.002
0.002
0.002
0.002
0.002
0.002
0.002
0.002
0.002
0.002
0.002
0.002
0.002
0.002
0.002
0.002
0.002
0.002
0.002
0.002
0.002
0.002
0.002
0.002
0.002
0.002
0.002
0.002
0.002
0.002
0.002
0.002
0.002
0.002
0.002
0.002
0.002
0.002
0.002
0.002
0.002
0.002
0.002
0.002
0.002
0.002
0.002
0.002
0.002
0.002
0.002
0.002
0.002
0.002
0.002
0.002
0.002
0.002
0.002
0.002
0.002
0.002
0.002
0.002
0.002
0.002
0.002
0.002
0.002
0.002
0.002
0.002
0.002
0.002
0.002
0.002
0.002
0.002
0.002
0.002
0.002
0.002
0.002
0.002
0.002
0.002
0.002
0.002
0.002
0.002
0.002
0.002
0.002
0.002
0.002
0.002
0.002
0.002
0.002
0.002
0.002
0.002
0.002
0.002
0.002
0.002
0.002
0.002
0.002
0.002
0.002
0.002
0.002
0.002
0.002
0.002
0.002
0.002
0.002
0.002
0.002
0.002
0.002
0.002
0.002
0.002
0.002
0.002
0.002
0.002
0.002
0.002
0.002
0.002
0.002
0.002
0.002
0.002
0.002
0.002
0.002
0.002
0.002
0.002
0.002
0.002
0.002
0.002
0.002
0.002
0.002
0.002
0.002
0.002
0.002
0.002
0.002
0.002
0.002
0.002
0.002
0.002
0.002
0.002
0.002
0.002
0.002
0.002
0.002
0.002
0.002
0.002
0.002
0.002
0.002
0.002
0.002
0.002
0.002
0.002
0.002
0.002
0.002
0.002
0.002
0.002
0.002
0.002
0.002
0.002
0.002
0.002
0.002
0.002
0.002
0.002
0.002
0.002
0.002
0.002
0.002
0.002
0.002
0.002
0.002
0.002
0.002
0.002
0.002
0.002
0.002
0.002
0.002
0.002
0.002
0.002
0.002
0.002
0.002
0.002
0.002
0.002
0.002
0.002
0.002
0.002
0.002
0.002
0.002
0.002
0.002
0.002
0.002
0.002
0.002
0.002
0.002
0.002
0.002
0.002
0.002
0.002
0.002
0.002
0.002
0.002
0.002
0.002
0.002
0.002
0.002
0.002
0.002
0.002
0.002
0.002
0.002
0.002
0.002
0.002
0.002
0.002
0.002
0.002
0.002
0.002
0.002
0.002
0.002
0.002
0.002
0.002
0.002
0.002
0.002
0.002
0.002
0.002
0.002
0.002
0.002
0.002
0.002
0.002
0.002
0.002
0.002
0.002
0.002
0.002
0.002
0.002
0.002
0.002
0.002
0.002
0.002
0.002
0.002
0.002
0.002
0.002
0.002
0.002
0.002
0.002
0.002
0.002
0.002
0.002
0.002
0.002
0.002
0.002
0.002
0.002
0.002
0.002
0.002
0.002
0.002
0.002
0.002
0.002
0.002
0.002
0.002
0.002
0.002
0.002
0.002
0.002
0.002
0.002
0.002
0.002
0.002
0.002
0.002
0.002
0.002
0.002
0.002
0.002
0.002
0.002
0.002
0.002
0.002
0.002
0.002
0.002
0.002
0.002
0.002
0.002
0.002
0.002
0.002
0.002
0.002
0.002
0.002
0.002
0.002
0.002
0.002
0.002
0.002
0.002
0.002
0.002
0.002
0.002
0.002
0.002
0.002
0.002
0.002
0.002
0.002
0.002
0.002
0.002
0.002
0.002
0.002
0.002
0.002
0.002
0.002
0.002
0.002
0.002
0.002
0.002
0.002
0.002
0.002
0.002
0.002
0.002
0.002
0.002
0.002
0.002
0.002
0.002
0.002
0.002
0.002
0.002
0.002
0.002
0.002
0.002
0.002
0.002
0.002
0.002
0.002
0.002
0.002
0.002
0.002
0.002
0.002
0.002
0.002
0.002
0.002
0.002
0.002
0.002
0.002
0.002
0.002
0.002
0.002
0.002
0.002
0.002
0.002
0.002
0.002
0.002
0.002
0.002
0.002
0.002
0.002
0.002
0.002
0.002
0.002
0.002
0.002
0.002
0.002
0.002
0.002
0.002
0.002
0.002
0.002
0.002
0.002
0.002
0.002
0.002
0.002
0.002
0.002
0.002
0.002
0.002
0.002
0.002
0.002
0.002
0.002
0.002
0.002
0.002
0.002
0.002
0.002
0.002
0.002
0.002
0.002
0.002
0.002
0.002
0.002
0.002
0.002
0.002
0.002
0.002
0.002
0.002
0.002
0.002
0.002
0.002
0.002
0.002
0.002
0.002
0.002
0.002
0.002
0.002
0.002
0.002
0.002
0.002
0.002
0.002
0.002
0.002
0.002
0.002
0.002
0.002
0.002
0.002
0.002
0.002
0.002
0.002
0.002
0.002
0.002
0.002
0.002
0.002
0.002
0.002
0.002
0.002
0.002
0.002
0.002
0.002
0.002
0.002
0.002
0.002
0.002
0.002
0.002
0.002
0.002
0.002
0.002
0.002
0.002
0.002
0.002
0.002
0.002
0.002
0.002
0.002
0.002
0.002
0.002
0.002
0.002
0.002
0.002
0.002
0.002
0.002
0.002
0.002
0.002
0.002
0.002
0.002
0.002
0.002
0.002
0.002
0.002
0.002
0.002
0.002
0.002
0.002
0.002
0.002
0.002
0.002
0.002
0.002
0.002
0.002
0.002
0.002
0.002
0.002
0.002
0.002
0.002
0.002
0.002
0.002
0.002
0.002
0.002
0.002
0.002
0.002
0.002
0.002
0.002
0.002
0.002
0.002
0.002
0.002
0.002
0.002
0.002
0.002
0.002
0.002
0.002
0.002
0.002
0.002
0.002
0.002
0.002
0.002
0.002
0.002
0.002
0.002
0.002
0.002
0.002
0.002
0.002
0.002
0.002
0.002
0.002
0.002
0.002
0.002
0.002
0.002
0.002
0.002
0.002
0.002
0.002
0.002
0.002
0.002
0.002
0.002
0.002
0.002
0.002
0.002
0.002
0.002
0.002
0.002
0.002
0.002
0.002
0.002
0.002
0.002
0.002
0.002
0.002
0.002
0.002
0.002
0.002
0.002
0.002
0.002
0.002
0.002
0.002
0.002
0.002
0.002
0.002
0.002
0.002
0.002
0.002
0.002
0.002
0.002
0.002
0.002
0.002
0.002
0.002
0.002
0.002
0.002
0.002
0.002
0.002
0.002
0.002
0.002
0.002
0.002
0.002
0.002
0.002
0.002
0.002
0.002
0.002
0.002
0.002
0.002
0.002
0.002
0.002
0.002
0.002
0.002
0.002
0.002
0.002
0.002
0.002
0.002
0.002
0.002
0.002
0.002
0.002
0.002
0.002
0.002
0.002
0.002
0.002
0.002
0.002
0.002
0.002
0.002
0.002
0.002
0.002
0.002
0.002
0.002
0.002
0.002
0.002
0.002
0.002
0.002
0.002
0.002
0.002
0.002
0.002
0.002
0.002
0.002
0.002
0.002
0.002
0.002
0.002
0.002
0.002
0.002
0.002
0.002
0.002
0.002
0.002
0.002
0.002
0.002
0.002
0.002
0.002
0.002
0.002
0.002
0.002
0.002
0.002
0.002
0.002
0.002
0.002
0.002
0.002
0.002
0.002
0.002
0.002
0.002
0.002
0.002
0.002
0.002
0.002
0.002
0.002
0.002
0.002
0.002
0.002
0.002
0.002
0.002
0.002
0.002
0.002
0.002
0.002
0.002
0.002
0.002
0.002
0.002
0.002
0.002
0.002
0.002
0.002
0.002
0.002
0.002
0.002
0.002
0.002
0.002
0.002
0.002
0.002
0.002
0.002
0.002
0.002
0.002
0.002
0.002
0.002
0.002
0.002
0.002
0.002
0.002
0.002
0.002
0.002
0.002
0.002
0.002
0.002
0.002
0.002
0.002
0.002
0.002
0.002
0.002
0.002
0.002
0.002
0.002
0.002
0.002
0.002
0.002
0.002
0.002
0.002
0.002
0.002
0.002
0.002
0.002
0.002
0.002
0.002
0.002
0.002
0.002
0.002
0.002
0.002
0.002
0.002
0.002
0.002
0.002
0.002
0.002
0.002
0.002
0.002
0.002
0.002
0.002
0.002
0.002
0.002
0.002
0.002
0.002
0.002
0.002
0.002
0.002
0.002
0.002
0.002
0.002
0.002
0.002
0.002
0.002
0.002
0.002
0.002
0.002
0.002
0.002
0.002
0.002
0.002
0.002
0.002
0.002
0.002
0.002
0.002
0.002
0.002
0.002
0.002
0.002
0.002
0.002
0.002
0.002
0.002
0.002
0.002
0.002
0.002
0.002
0.002
0.002
0.002
0.002
0.002
0.002
0.002
0.002
0.002
0.002
0.002
0.002
0.002
0.002
0.002
0.002
0.002
0.002
0.002
0.002
0.002
0.002
0.002
0.002
0.002
0.002
0.002
0.002
0.002
0.002
0.002
0.002
0.002
0.002
0.002
0.002
0.002
0.002
0.002
0.002
0.002
0.002
0.002
0.002
0.002
0.002
0.002
0.002
0.002
0.002
0.002
0.002
0.002
0.002
0.002
0.002
0.002
0.002
0.002
0.002
0.002
0.002
0.002
0.002
0.002
0.002
0.002
0.002
0.002
0.002
0.002
0.002
0.002
0.002
0.002
0.002
0.002
0.002
0.002
0.002
0.002
0.002
0.002
0.002
0.002
0.002
0.002
0.002
0.002
0.002
0.002
0.002
0.002
0.002
0.002
0.002
0.002
0.002
0.002
0.002
0.002
0.002
0.002
0.002
0.002
0.002
0.002
0.002
0.002
0.002
0.002
0.002
0.002
0.002
0.002
0.002
0.002
0.002
0.002
0.002
0.002
0.002
0.002
0.002
0.002
0.002
0.002
0.002
0.002
0.002
0.002
0.002
0.002
0.002
0.002
0.002
0.002
0.002
0.002
0.002
0.002
0.002
0.002
0.002
0.002
0.002
0.002
0.002
0.002
0.002
0.002
0.002
0.002
0.002
0.002
0.002
0.002
0.002
0.002
0.002
0.002
0.002
0.002
0.002
0.002
0.002
0.002
0.002
0.002
0.002
0.002
0.002
0.002
0.002
0.002
0.002
0.002
0.002
0.002
0.002
0.002
0.002
0.002
0.002
0.002
0.002
0.002
0.002
0.002
0.002
0.002
0.002
0.002
0.002
0.002
0.002
0.002
0.002
0.002
0.002
0.002
0.002
0.002
0.002
0.002
0.002
0.002
0.002
0.002
0.002
0.002
0.002
0.002
0.002
0.002
0.002
0.002
0.002
0.002
0.002
0.002
0.002
0.002
0.002
0.002
0.002
0.002
0.002
0.002
0.002
0.002
0.002
0.002
0.002
0.002
0.002
0.002
0.002
0.002
0.002
0.002
0.002
0.002
0.002
0.002
0.002
0.002
0.002
0.002
0.002
0.002
0.002
0.002
0.002
0.002
0.002
0.002
0.002
0.002
0.002
0.002
0.002
0.002
0.002
0.002
0.002
0.002
0.002
0.002
0.002
0.002
0.002
0.002
0.002
0.002
0.002
0.002
0.002
0.002
0.002
0.002
0.002
0.002
0.002
0.002
0.002
0.002
0.002
0.002
0.002
0.002
0.002
0.002
0.002
0.002
0.002
0.002
0.002
0.002
0.002
0.002
0.002
0.002
0.002
0.002
0.002
0.002
0.002
0.002
0.002
0.002
0.002
0.002
0.002
0.002
0.002
0.002
0.002
0.002
0.002
0.002
0.002
0.002
0.002
0.002
0.002
0.002
0.002
0.002
0.002
0.002
0.002
0.002
0.002
0.002
0.002
0.002
0.002
0.002
0.002
0.002
0.002
0.002
0.002
0.002
0.002
0.002
0.002
0.002
0.002
0.002
0.002
0.002
0.002
0.002
0.002
0.002
0.002
0.002
0.002
0.002
0.002
0.002
0.002
0.002
0.002
0.002
0.002
0.002
0.002
0.002
0.002
0.002
0.002
0.002
0.002
0.002
0.002
0.002
0.002
0.002
0.002
0.002
0.002
0.002
0.002
0.002
0.002
0.002
0.002
0.002
0.002
0.002
0.002
0.002
0.002
0.002
0.002
0.002
0.002
0.002
0.002
0.002
0.002
0.002
0.002
0.002
0.002
0.002
0.002
0.0020001
0.00200121
0.0020028
0.00200464
0.00200696
0.00200993
0.00201366
0.00201824
0.00202371
0.00203005
0.00203719
0.00204501
0.00205334
0.00206195
0.00207059
0.00207901
0.00208692
0.00209413
0.00210064
0.00210687
0.00211192
0.00211501
0.00211609
0.00211531
0.00211284
0.00210887
0.00210364
0.00209738
0.00209034
0.00208279
0.00207496
0.00206708
0.00205933
0.00205188
0.00204485
0.00203835
0.00203241
0.00202699
0.002
0.002
0.002
0.002
0.002
0.002
0.002
0.002
0.002
0.002
0.002
0.002
0.002
0.002
0.002
0.002
0.002
0.002
0.002
0.002
0.002
0.002
0.002
0.002
0.002
0.002
0.002
0.002
0.002
0.002
0.002
0.002
0.002
0.002
0.002
0.002
0.002
0.002
0.002
0.002
0.002
0.00201855
0.0117924
0.0247868
0.031775
0.0369646
0.0417325
0.0464104
0.0510605
0.0556684
0.0601953
0.0645956
0.0688229
0.0728344
0.0765902
0.080057
0.0832054
0.0860132
0.0884657
0.0905603
0.0923591
0.0940004
0.0952774
0.0960312
0.0962838
0.0960812
0.0954596
0.0944486
0.0930766
0.0913724
0.0893641
0.0870811
0.0845527
0.0818088
0.0788794
0.0757942
0.0725822
0.0692701
0.0658783
0.0623767
0.002
0.002
0.002
0.002
0.002
0.002
0.002
0.002
0.002
0.002
0.002
0.002
0.002
0.002
0.002
0.002
0.002
0.002
0.002
0.002
0.002
0.002
0.002
0.002
0.002
0.002
0.002
0.002
0.002
0.002
0.002
0.002
0.002
0.002
0.002
0.002
0.002
0.002
0.002
0.002
0.00200148
0.0630817
0.34918
0.425545
0.452509
0.469616
0.483609
0.495981
0.507155
0.517291
0.526468
0.534744
0.542169
0.548789
0.55465
0.559796
0.564269
0.568109
0.571359
0.574066
0.576374
0.57845
0.580041
0.580965
0.581295
0.58109
0.580391
0.579224
0.577605
0.575551
0.57307
0.570169
0.566855
0.563132
0.559002
0.55447
0.549536
0.544201
0.538456
0.53217
0.002
0.002
0.002
0.002
0.002
0.002
0.002
0.002
0.002
0.002
0.002
0.002
0.002
0.002
0.002
0.002
0.002
0.002
0.002
0.002
0.002
0.002
0.002
0.002
0.002
0.002
0.002
0.002
0.002
0.002
0.002
0.002
0.002
0.002
0.002
0.002
0.002
0.002
0.002
0.002
0.0151794
0.596922
0.744653
0.749487
0.751496
0.753055
0.75442
0.75565
0.756769
0.757789
0.758716
0.759559
0.760323
0.761012
0.761632
0.762188
0.762682
0.76312
0.763506
0.763844
0.764192
0.764506
0.764752
0.764937
0.76507
0.765155
0.765198
0.765204
0.765175
0.765114
0.765024
0.764907
0.764766
0.764603
0.76442
0.764219
0.764003
0.763773
0.763532
0.762945
0.002
0.002
0.002
0.002
0.002
0.002
0.002
0.002
0.002
0.002
0.002
0.002
0.002
0.002
0.002
0.002
0.002
0.002
0.002
0.002
0.002
0.002
0.002
0.002
0.002
0.002
0.002
0.002
0.002
0.002
0.002
0.002
0.002
0.002
0.002
0.002
0.002
0.002
0.002
0.00202639
0.186425
0.773489
0.7958
0.796833
0.796922
0.796987
0.797071
0.79717
0.79728
0.797397
0.797517
0.797638
0.797758
0.797876
0.797991
0.798102
0.798209
0.798312
0.798412
0.798508
0.798625
0.798745
0.798848
0.798941
0.799028
0.79911
0.799189
0.799267
0.799345
0.799424
0.799505
0.799591
0.799683
0.799781
0.799889
0.800008
0.80014
0.800288
0.800453
0.800637
0.002
0.002
0.002
0.002
0.002
0.002
0.002
0.002
0.002
0.002
0.002
0.002
0.002
0.002
0.002
0.002
0.002
0.002
0.002
0.002
0.002
0.002
0.002
0.002
0.002
0.002
0.002
0.002
0.002
0.002
0.002
0.002
0.002
0.002
0.002
0.002
0.002
0.002
0.002
0.00204975
0.209997
0.760655
0.809313
0.812695
0.812795
0.812751
0.812717
0.812697
0.812688
0.812689
0.812698
0.812716
0.81274
0.812771
0.812807
0.812848
0.812894
0.812945
0.813001
0.813062
0.813135
0.813229
0.813317
0.813405
0.813495
0.813587
0.813683
0.813784
0.81389
0.814001
0.814118
0.814242
0.814373
0.814511
0.814659
0.814815
0.814981
0.815157
0.815344
0.815544
0.002
0.002
0.002
0.002
0.002
0.002
0.002
0.002
0.002
0.002
0.002
0.002
0.002
0.002
0.002
0.002
0.002
0.002
0.002
0.002
0.002
0.002
0.002
0.002
0.002
0.002
0.002
0.002
0.002
0.002
0.002
0.002
0.002
0.002
0.002
0.002
0.002
0.002
0.002
0.00200202
0.0933471
0.678036
0.809491
0.821795
0.822302
0.822263
0.822219
0.822185
0.822159
0.822142
0.822133
0.822131
0.822136
0.822147
0.822165
0.822189
0.822219
0.822254
0.822295
0.822343
0.822398
0.822468
0.822545
0.822623
0.822703
0.822787
0.822874
0.822965
0.823061
0.823161
0.823266
0.823376
0.823491
0.823611
0.823736
0.823867
0.824003
0.824145
0.824293
0.824446
0.002
0.002
0.002
0.002
0.002
0.002
0.002
0.002
0.002
0.002
0.002
0.002
0.002
0.002
0.002
0.002
0.002
0.002
0.002
0.002
0.002
0.002
0.002
0.002
0.002
0.002
0.002
0.002
0.002
0.002
0.002
0.002
0.002
0.002
0.002
0.002
0.002
0.002
0.002
0.00200001
0.0211726
0.532306
0.787754
0.827228
0.829059
0.829066
0.829033
0.829006
0.828986
0.828972
0.828964
0.828962
0.828966
0.828975
0.82899
0.82901
0.829034
0.829064
0.829099
0.829139
0.829186
0.82924
0.829301
0.829368
0.829438
0.82951
0.829584
0.829662
0.829743
0.829826
0.829913
0.830003
0.830096
0.830193
0.830293
0.830396
0.830502
0.830611
0.830724
0.830839
0.002
0.002
0.002
0.002
0.002
0.002
0.002
0.002
0.002
0.002
0.002
0.002
0.002
0.002
0.002
0.002
0.002
0.002
0.002
0.002
0.002
0.002
0.002
0.002
0.002
0.002
0.002
0.002
0.002
0.002
0.002
0.002
0.002
0.002
0.002
0.002
0.002
0.002
0.002
0.002
0.00414118
0.368935
0.727021
0.828589
0.834282
0.834401
0.834383
0.834368
0.834357
0.834351
0.83435
0.834353
0.83436
0.834372
0.834388
0.834408
0.834432
0.83446
0.834492
0.834528
0.834569
0.834614
0.834665
0.834719
0.834779
0.834842
0.834907
0.834973
0.835041
0.835112
0.835184
0.835258
0.835334
0.835413
0.835493
0.835575
0.83566
0.835746
0.835834
0.835924
0.002
0.002
0.002
0.002
0.002
0.002
0.002
0.002
0.002
0.002
0.002
0.002
0.002
0.002
0.002
0.002
0.002
0.002
0.002
0.002
0.002
0.002
0.002
0.002
0.002
0.002
0.002
0.002
0.002
0.002
0.002
0.002
0.002
0.002
0.002
0.002
0.002
0.002
0.002
0.002
0.00206703
0.217392
0.626922
0.822381
0.838461
0.838849
0.838848
0.838843
0.838842
0.838844
0.838849
0.838858
0.83887
0.838885
0.838903
0.838925
0.838949
0.838977
0.839008
0.839042
0.839079
0.83912
0.839164
0.839211
0.839261
0.839315
0.839371
0.83943
0.83949
0.83955
0.839612
0.839675
0.839739
0.839804
0.83987
0.839938
0.840007
0.840077
0.840148
0.84022
0.002
0.002
0.002
0.002
0.002
0.002
0.002
0.002
0.002
0.002
0.002
0.002
0.002
0.002
0.002
0.002
0.002
0.002
0.002
0.002
0.002
0.002
0.002
0.002
0.002
0.002
0.002
0.002
0.002
0.002
0.002
0.002
0.002
0.002
0.002
0.002
0.002
0.002
0.002
0.002
0.00200042
0.071254
0.505739
0.800996
0.841658
0.842719
0.842741
0.842745
0.842751
0.84276
0.842771
0.842785
0.842802
0.84282
0.842841
0.842865
0.84289
0.842919
0.842949
0.842982
0.843017
0.843055
0.843095
0.843137
0.843182
0.843229
0.843278
0.843329
0.843382
0.843436
0.843491
0.843545
0.843601
0.843656
0.843713
0.84377
0.843827
0.843886
0.843944
0.844003
0.002
0.002
0.002
0.002
0.002
0.002
0.002
0.002
0.002
0.002
0.002
0.002
0.002
0.002
0.002
0.002
0.002
0.002
0.002
0.002
0.002
0.002
0.002
0.002
0.002
0.002
0.002
0.002
0.002
0.002
0.002
0.002
0.002
0.002
0.002
0.002
0.002
0.002
0.002
0.002
0.002
0.0128578
0.381148
0.755014
0.843427
0.846189
0.846251
0.846262
0.846275
0.846289
0.846306
0.846324
0.846344
0.846366
0.846389
0.846414
0.846441
0.84647
0.846501
0.846533
0.846567
0.846603
0.846641
0.84668
0.846721
0.846763
0.846807
0.846853
0.846899
0.846947
0.846997
0.847046
0.847096
0.847145
0.847194
0.847243
0.847292
0.847342
0.847391
0.847437
0.002
0.002
0.002
0.002
0.002
0.002
0.002
0.002
0.002
0.002
0.002
0.002
0.002
0.002
0.002
0.002
0.002
0.002
0.002
0.002
0.002
0.002
0.002
0.002
0.002
0.002
0.002
0.002
0.002
0.002
0.002
0.002
0.002
0.002
0.002
0.002
0.002
0.002
0.002
0.002
0.002
0.00280045
0.268062
0.68192
0.842295
0.849349
0.849495
0.849514
0.849532
0.849551
0.849571
0.849593
0.849616
0.84964
0.849666
0.849693
0.849721
0.849751
0.849781
0.849814
0.849847
0.849882
0.849918
0.849955
0.849994
0.850033
0.850074
0.850115
0.850157
0.850201
0.850245
0.850289
0.850334
0.850379
0.850423
0.850466
0.850509
0.850551
0.850591
0.850621
0.002
0.002
0.002
0.002
0.002
0.002
0.002
0.002
0.002
0.002
0.002
0.002
0.002
0.002
0.002
0.002
0.002
0.002
0.002
0.002
0.002
0.002
0.002
0.002
0.002
0.002
0.002
0.002
0.002
0.002
0.002
0.002
0.002
0.002
0.002
0.002
0.002
0.002
0.002
0.002
0.002
0.00200807
0.158763
0.585628
0.834623
0.852199
0.85255
0.852578
0.8526
0.852623
0.852647
0.852672
0.852697
0.852724
0.852752
0.85278
0.85281
0.85284
0.852872
0.852904
0.852938
0.852972
0.853007
0.853043
0.853079
0.853117
0.853154
0.853193
0.853232
0.853272
0.853312
0.853352
0.853392
0.853433
0.853473
0.853512
0.853549
0.853583
0.853611
0.853606
0.002
0.002
0.002
0.002
0.002
0.002
0.002
0.002
0.002
0.002
0.002
0.002
0.002
0.002
0.002
0.002
0.002
0.002
0.002
0.002
0.002
0.002
0.002
0.002
0.002
0.002
0.002
0.002
0.002
0.002
0.002
0.002
0.002
0.002
0.002
0.002
0.002
0.002
0.002
0.002
0.002
0.00200004
0.0434226
0.470366
0.812989
0.854595
0.855471
0.855511
0.855537
0.855564
0.855591
0.855618
0.855646
0.855675
0.855705
0.855735
0.855765
0.855797
0.855829
0.855861
0.855895
0.855928
0.855963
0.855998
0.856033
0.856069
0.856105
0.856141
0.856178
0.856214
0.856251
0.856288
0.856324
0.85636
0.856395
0.856428
0.856459
0.856482
0.856484
0.856382
0.002
0.002
0.002
0.002
0.002
0.002
0.002
0.002
0.002
0.002
0.002
0.002
0.002
0.002
0.002
0.002
0.002
0.002
0.002
0.002
0.002
0.002
0.002
0.002
0.002
0.002
0.002
0.002
0.002
0.002
0.002
0.002
0.002
0.002
0.002
0.002
0.002
0.002
0.002
0.002
0.002
0.002
0.00705102
0.347901
0.767171
0.85601
0.858287
0.858355
0.858385
0.858414
0.858444
0.858473
0.858504
0.858534
0.858565
0.858597
0.858629
0.858661
0.858694
0.858727
0.85876
0.858794
0.858828
0.858862
0.858896
0.858931
0.858965
0.859
0.859034
0.859068
0.859102
0.859135
0.859167
0.859198
0.859227
0.859252
0.859271
0.85927
0.859204
0.858795
0.002
0.002
0.002
0.002
0.002
0.002
0.002
0.002
0.002
0.002
0.002
0.002
0.002
0.002
0.002
0.002
0.002
0.002
0.002
0.002
0.002
0.002
0.002
0.002
0.002
0.002
0.002
0.002
0.002
0.002
0.002
0.002
0.002
0.002
0.002
0.002
0.002
0.002
0.002
0.002
0.002
0.002
0.00219034
0.235899
0.691957
0.854878
0.861
0.861137
0.861171
0.861202
0.861234
0.861267
0.861299
0.861332
0.861364
0.861397
0.86143
0.861464
0.861497
0.861531
0.861564
0.861598
0.861632
0.861666
0.8617
0.861733
0.861767
0.861799
0.861832
0.861863
0.861894
0.861923
0.86195
0.861974
0.861994
0.862004
0.861993
0.861923
0.861639
0.8602
0.002
0.002
0.002
0.002
0.002
0.002
0.002
0.002
0.002
0.002
0.002
0.002
0.002
0.002
0.002
0.002
0.002
0.002
0.002
0.002
0.002
0.002
0.002
0.002
0.002
0.002
0.002
0.002
0.002
0.002
0.002
0.002
0.002
0.002
0.002
0.002
0.002
0.002
0.002
0.002
0.002
0.002
0.00200068
0.127362
0.588671
0.846984
0.863552
0.863877
0.863917
0.863952
0.863986
0.864021
0.864055
0.86409
0.864125
0.864159
0.864194
0.864229
0.864263
0.864298
0.864332
0.864366
0.8644
0.864434
0.864467
0.8645
0.864532
0.864563
0.864593
0.864621
0.864647
0.864671
0.86469
0.864702
0.864702
0.864677
0.864587
0.8643
0.863274
0.858999
0.002
0.002
0.002
0.002
0.002
0.002
0.002
0.002
0.002
0.002
0.002
0.002
0.002
0.002
0.002
0.002
0.002
0.002
0.002
0.002
0.002
0.002
0.002
0.002
0.002
0.002
0.002
0.002
0.002
0.002
0.002
0.002
0.002
0.002
0.002
0.002
0.002
0.002
0.002
0.002
0.002
0.002
0.00200001
0.0296945
0.460945
0.82267
0.865725
0.866592
0.866644
0.866682
0.866719
0.866756
0.866793
0.86683
0.866867
0.866903
0.866939
0.866975
0.867011
0.867047
0.867082
0.867117
0.867151
0.867184
0.867217
0.867248
0.867279
0.867307
0.867333
0.867355
0.867374
0.867386
0.867388
0.867374
0.867328
0.867208
0.866888
0.865942
0.862884
0.854099
0.002
0.002
0.002
0.002
0.002
0.002
0.002
0.002
0.002
0.002
0.002
0.002
0.002
0.002
0.002
0.002
0.002
0.002
0.002
0.002
0.002
0.002
0.002
0.002
0.002
0.002
0.002
0.002
0.002
0.002
0.002
0.002
0.002
0.002
0.002
0.002
0.002
0.002
0.002
0.002
0.002
0.002
0.002
0.00476478
0.326779
0.767812
0.866787
0.869287
0.869369
0.86941
0.86945
0.869489
0.869529
0.869567
0.869606
0.869644
0.869682
0.86972
0.869757
0.869793
0.869829
0.869864
0.869898
0.86993
0.869962
0.869991
0.870017
0.87004
0.870058
0.870069
0.870071
0.870059
0.870025
0.869948
0.869781
0.869399
0.868422
0.865707
0.858565
0.84493
0.002
0.002
0.002
0.002
0.002
0.002
0.002
0.002
0.002
0.002
0.002
0.002
0.002
0.002
0.002
0.002
0.002
0.002
0.002
0.002
0.002
0.002
0.002
0.002
0.002
0.002
0.002
0.002
0.002
0.002
0.002
0.002
0.002
0.002
0.002
0.002
0.002
0.002
0.002
0.002
0.002
0.002
0.002
0.00204619
0.213158
0.676733
0.864416
0.871932
0.872101
0.872147
0.872189
0.872231
0.872273
0.872314
0.872355
0.872395
0.872435
0.872473
0.872512
0.872549
0.872585
0.872619
0.872652
0.872682
0.87271
0.872733
0.872751
0.872762
0.872763
0.872751
0.872717
0.872651
0.872527
0.872291
0.871808
0.870714
0.868038
0.86166
0.849525
0.833587
0.002
0.002
0.002
0.002
0.002
0.002
0.002
0.002
0.002
0.002
0.002
0.002
0.002
0.002
0.002
0.002
0.002
0.002
0.002
0.002
0.002
0.002
0.002
0.002
0.002
0.002
0.002
0.002
0.002
0.002
0.002
0.002
0.002
0.002
0.002
0.002
0.002
0.002
0.002
0.002
0.002
0.002
0.002
0.00200013
0.108144
0.552824
0.852016
0.874417
0.87485
0.874904
0.87495
0.874995
0.875039
0.875083
0.875126
0.875168
0.87521
0.87525
0.875289
0.875326
0.875361
0.875394
0.875423
0.875448
0.875467
0.875478
0.875478
0.875464
0.875428
0.875361
0.875246
0.875051
0.874708
0.874068
0.872768
0.869952
0.863963
0.853244
0.839021
0.824496
0.002
0.002
0.002
0.002
0.002
0.002
0.002
0.002
0.002
0.002
0.002
0.002
0.002
0.002
0.002
0.002
0.002
0.002
0.002
0.002
0.002
0.002
0.002
0.002
0.002
0.002
0.002
0.002
0.002
0.002
0.002
0.002
0.002
0.002
0.002
0.002
0.002
0.002
0.002
0.002
0.002
0.002
0.002
0.002
0.0224237
0.405523
0.815172
0.876352
0.877624
0.877697
0.877747
0.877795
0.877843
0.877889
0.877935
0.877979
0.878022
0.878063
0.878102
0.878138
0.87817
0.878198
0.878219
0.878231
0.878232
0.878216
0.878177
0.878106
0.877988
0.877796
0.877486
0.876971
0.87607
0.874396
0.871161
0.865105
0.855368
0.843098
0.830622
0.818913
0.002
0.002
0.002
0.002
0.002
0.002
0.002
0.002
0.002
0.002
0.002
0.002
0.002
0.002
0.002
0.002
0.002
0.002
0.002
0.002
0.002
0.002
0.002
0.002
0.002
0.002
0.002
0.002
0.002
0.002
0.002
0.002
0.002
0.002
0.002
0.002
0.002
0.002
0.002
0.002
0.002
0.002
0.002
0.002
0.00359262
0.270881
0.738973
0.876398
0.88041
0.880539
0.880594
0.880646
0.880697
0.880747
0.880795
0.880841
0.880885
0.880926
0.880963
0.880995
0.88102
0.881035
0.881037
0.881022
0.88098
0.880903
0.880775
0.880571
0.880253
0.879755
0.878958
0.877638
0.875372
0.871452
0.86507
0.856137
0.845893
0.835828
0.826357
0.816947
0.002
0.002
0.002
0.002
0.002
0.002
0.002
0.002
0.002
0.002
0.002
0.002
0.002
0.002
0.002
0.002
0.002
0.002
0.002
0.002
0.002
0.002
0.002
0.002
0.002
0.002
0.002
0.002
0.002
0.002
0.002
0.002
0.002
0.002
0.002
0.002
0.002
0.002
0.002
0.002
0.002
0.002
0.002
0.002
0.0020084
0.172538
0.623741
0.870325
0.883129
0.883435
0.8835
0.883558
0.883613
0.883667
0.883717
0.883765
0.883809
0.883847
0.883878
0.883898
0.883904
0.88389
0.883847
0.883763
0.883622
0.883396
0.883049
0.88252
0.881713
0.880471
0.878532
0.875495
0.870867
0.864405
0.856585
0.84846
0.84081
0.833698
0.82672
0.819265
0.002
0.002
0.002
0.002
0.002
0.002
0.002
0.002
0.002
0.002
0.002
0.002
0.002
0.002
0.002
0.002
0.002
0.002
0.002
0.002
0.002
0.002
0.002
0.002
0.002
0.002
0.002
0.002
0.002
0.002
0.002
0.002
0.002
0.002
0.002
0.002
0.002
0.002
0.002
0.002
0.002
0.002
0.002
0.002
0.00200004
0.0759918
0.473221
0.846615
0.885491
0.886394
0.886482
0.886546
0.886606
0.886663
0.886716
0.886762
0.886801
0.886828
0.88684
0.88683
0.886787
0.886696
0.886538
0.886282
0.885884
0.885283
0.884385
0.88306
0.88112
0.878321
0.87441
0.869287
0.863215
0.856817
0.850691
0.845078
0.839878
0.834831
0.829627
0.823884
0.002
0.002
0.002
0.002
0.002
0.002
0.002
0.002
0.002
0.002
0.002
0.002
0.002
0.002
0.002
0.002
0.002
0.002
0.002
0.002
0.002
0.002
0.002
0.002
0.002
0.002
0.002
0.002
0.002
0.002
0.002
0.002
0.002
0.002
0.002
0.002
0.002
0.002
0.002
0.002
0.002
0.002
0.002
0.002
0.002
0.0119645
0.309365
0.783548
0.886342
0.889397
0.889549
0.889621
0.889685
0.889742
0.889791
0.889827
0.889845
0.889839
0.889797
0.889701
0.889524
0.889229
0.888764
0.888054
0.887002
0.885486
0.883362
0.880493
0.876806
0.872369
0.867443
0.86241
0.857598
0.85315
0.849032
0.845118
0.841265
0.837336
0.833199
0.828683
0.002
0.002
0.002
0.002
0.002
0.002
0.002
0.002
0.002
0.002
0.002
0.002
0.002
0.002
0.002
0.002
0.002
0.002
0.002
0.002
0.002
0.002
0.002
0.002
0.002
0.002
0.002
0.002
0.002
0.002
0.002
0.002
0.002
0.002
0.002
0.002
0.002
0.002
0.002
0.002
0.002
0.002
0.002
0.002
0.002
0.00237239
0.191513
0.662083
0.880825
0.892295
0.892689
0.892769
0.89283
0.892876
0.892903
0.8929
0.892857
0.892752
0.892556
0.892223
0.891691
0.890879
0.889683
0.887987
0.885688
0.882739
0.879201
0.87526
0.871181
0.867205
0.863471
0.859998
0.856726
0.853564
0.850419
0.84721
0.843868
0.840333
0.836546
0.832452
0.002
0.002
0.002
0.002
0.002
0.002
0.002
0.002
0.002
0.002
0.002
0.002
0.002
0.002
0.002
0.002
0.002
0.002
0.002
0.002
0.002
0.002
0.002
0.002
0.002
0.002
0.002
0.002
0.002
0.002
0.002
0.002
0.002
0.002
0.002
0.002
0.002
0.002
0.002
0.002
0.002
0.002
0.002
0.002
0.002
0.00200035
0.116994
0.470575
0.848901
0.894337
0.895849
0.895953
0.895993
0.896001
0.895965
0.895865
0.895671
0.895338
0.894807
0.894002
0.892825
0.891181
0.889003
0.886306
0.883212
0.879923
0.876653
0.873548
0.870657
0.867956
0.865383
0.86287
0.860351
0.857769
0.855076
0.852224
0.849167
0.845853
0.842229
0.838236
0.002
0.002
0.002
0.002
0.002
0.002
0.002
0.002
0.002
0.002
0.002
0.002
0.002
0.002
0.002
0.002
0.002
0.002
0.002
0.002
0.002
0.002
0.002
0.002
0.002
0.002
0.002
0.002
0.002
0.002
0.002
0.002
0.002
0.002
0.002
0.002
0.002
0.002
0.002
0.002
0.002
0.002
0.002
0.002
0.002
0.002
0.0254777
0.258378
0.733042
0.89114
0.898863
0.89914
0.899138
0.899075
0.898934
0.898681
0.898269
0.897637
0.896713
0.895428
0.893738
0.891654
0.889262
0.886709
0.884149
0.881694
0.87939
0.877229
0.875175
0.873178
0.871193
0.86918
0.867101
0.864922
0.862607
0.860117
0.857405
0.854417
0.851083
0.847313
0.002
0.002
0.002
0.002
0.002
0.002
0.002
0.002
0.002
0.002
0.002
0.002
0.002
0.002
0.002
0.002
0.002
0.002
0.002
0.002
0.002
0.002
0.002
0.002
0.002
0.002
0.002
0.002
0.002
0.002
0.002
0.002
0.002
0.002
0.002
0.002
0.002
0.002
0.002
0.002
0.002
0.002
0.002
0.002
0.002
0.002
0.00309263
0.16522
0.494177
0.856945
0.900759
0.902323
0.902311
0.902176
0.901935
0.901554
0.900986
0.900181
0.899099
0.897723
0.896074
0.894221
0.89226
0.890287
0.88837
0.886539
0.884795
0.883115
0.881469
0.879826
0.878158
0.876437
0.874637
0.872729
0.870683
0.868461
0.86602
0.863303
0.860236
0.856719
0.002
0.002
0.002
0.002
0.002
0.002
0.002
0.002
0.002
0.002
0.002
0.002
0.002
0.002
0.002
0.002
0.002
0.002
0.002
0.002
0.002
0.002
0.002
0.002
0.002
0.002
0.002
0.002
0.002
0.002
0.002
0.002
0.002
0.002
0.002
0.002
0.002
0.002
0.002
0.002
0.002
0.002
0.002
0.002
0.002
0.002
0.0020005
0.113734
0.249968
0.700452
0.894373
0.905365
0.905639
0.90548
0.905205
0.904796