/*--------------------------------*- C++ -*----------------------------------*\
  =========                 |
  \\      /  F ield         | OpenFOAM: The Open Source CFD Toolbox
   \\    /   O peration     | Website:  https://openfoam.org
    \\  /    A nd           | Version:  8
     \\/     M anipulation  |
\*---------------------------------------------------------------------------*/
FoamFile
{
    version     2.0;
    format      ascii;
    class       volVectorField;
    location    "4000";
    object      Ua;
}
// * * * * * * * * * * * * * * * * * * * * * * * * * * * * * * * * * * * * * //

dimensions      [0 1 -1 0 0 0 0];

internalField   nonuniform List<vector> 
12800
(
(-1.40502e-08 2.02809e-08 0)
(-4.2006e-08 2.02489e-08 0)
(-6.96528e-08 2.0186e-08 0)
(-9.69524e-08 2.00929e-08 0)
(-1.23869e-07 1.99708e-08 0)
(-1.50369e-07 1.98207e-08 0)
(-1.76422e-07 1.96436e-08 0)
(-2.01999e-07 1.94408e-08 0)
(-2.27073e-07 1.92132e-08 0)
(-2.5162e-07 1.8962e-08 0)
(-2.75619e-07 1.86885e-08 0)
(-2.99049e-07 1.83937e-08 0)
(-3.21892e-07 1.80789e-08 0)
(-3.44134e-07 1.77452e-08 0)
(-3.65759e-07 1.73938e-08 0)
(-3.86757e-07 1.70259e-08 0)
(-4.07117e-07 1.66425e-08 0)
(-4.26831e-07 1.62449e-08 0)
(-4.45893e-07 1.58341e-08 0)
(-4.64297e-07 1.54113e-08 0)
(-4.8204e-07 1.49775e-08 0)
(-4.99121e-07 1.45338e-08 0)
(-5.15538e-07 1.40813e-08 0)
(-5.31292e-07 1.36208e-08 0)
(-5.46386e-07 1.31535e-08 0)
(-5.60823e-07 1.26801e-08 0)
(-5.74606e-07 1.22018e-08 0)
(-5.87741e-07 1.17193e-08 0)
(-6.00234e-07 1.12335e-08 0)
(-6.12093e-07 1.07452e-08 0)
(-6.23325e-07 1.02553e-08 0)
(-6.33939e-07 9.76439e-09 0)
(-6.43944e-07 9.27329e-09 0)
(-6.5335e-07 8.78267e-09 0)
(-6.62168e-07 8.29319e-09 0)
(-6.70409e-07 7.80547e-09 0)
(-6.78084e-07 7.3201e-09 0)
(-6.85205e-07 6.83765e-09 0)
(-6.91785e-07 6.35863e-09 0)
(-6.97836e-07 5.88354e-09 0)
(-7.0337e-07 5.41286e-09 0)
(-7.08402e-07 4.94701e-09 0)
(-7.12943e-07 4.4864e-09 0)
(-7.17008e-07 4.03141e-09 0)
(-7.2061e-07 3.5824e-09 0)
(-7.23762e-07 3.13967e-09 0)
(-7.26478e-07 2.70354e-09 0)
(-7.28772e-07 2.27426e-09 0)
(-7.30656e-07 1.85209e-09 0)
(-7.32146e-07 1.43725e-09 0)
(-7.33253e-07 1.02994e-09 0)
(-7.33992e-07 6.30342e-10 0)
(-7.34376e-07 2.38607e-10 0)
(-7.34417e-07 -1.45125e-10 0)
(-7.34129e-07 -5.20736e-10 0)
(-7.33524e-07 -8.88128e-10 0)
(-7.32615e-07 -1.24722e-09 0)
(-7.31415e-07 -1.59794e-09 0)
(-7.29935e-07 -1.94025e-09 0)
(-7.28187e-07 -2.27411e-09 0)
(-7.26184e-07 -2.5995e-09 0)
(-7.23937e-07 -2.91642e-09 0)
(-7.21457e-07 -3.22487e-09 0)
(-7.18754e-07 -3.52487e-09 0)
(-7.15841e-07 -3.81645e-09 0)
(-7.12727e-07 -4.09966e-09 0)
(-7.09422e-07 -4.37454e-09 0)
(-7.05937e-07 -4.64114e-09 0)
(-7.02282e-07 -4.89956e-09 0)
(-6.98465e-07 -5.14984e-09 0)
(-6.94495e-07 -5.39209e-09 0)
(-6.90383e-07 -5.6264e-09 0)
(-6.86136e-07 -5.85285e-09 0)
(-6.81763e-07 -6.07155e-09 0)
(-6.77272e-07 -6.28262e-09 0)
(-6.72671e-07 -6.48616e-09 0)
(-6.67967e-07 -6.68228e-09 0)
(-6.63168e-07 -6.87112e-09 0)
(-6.5828e-07 -7.05279e-09 0)
(-6.53312e-07 -7.22743e-09 0)
(-1.49764e-08 6.21784e-08 0)
(-4.47741e-08 6.20794e-08 0)
(-7.42402e-08 6.18842e-08 0)
(-1.03333e-07 6.15957e-08 0)
(-1.32012e-07 6.12172e-08 0)
(-1.60242e-07 6.07518e-08 0)
(-1.87987e-07 6.02029e-08 0)
(-2.15217e-07 5.9574e-08 0)
(-2.41901e-07 5.88685e-08 0)
(-2.68015e-07 5.80901e-08 0)
(-2.93532e-07 5.72423e-08 0)
(-3.18432e-07 5.63288e-08 0)
(-3.42695e-07 5.53533e-08 0)
(-3.66303e-07 5.43193e-08 0)
(-3.89243e-07 5.32304e-08 0)
(-4.11499e-07 5.20904e-08 0)
(-4.33063e-07 5.09028e-08 0)
(-4.53924e-07 4.96711e-08 0)
(-4.74076e-07 4.83989e-08 0)
(-4.93514e-07 4.70894e-08 0)
(-5.12233e-07 4.57461e-08 0)
(-5.30231e-07 4.43723e-08 0)
(-5.47509e-07 4.29712e-08 0)
(-5.64067e-07 4.15459e-08 0)
(-5.79908e-07 4.00994e-08 0)
(-5.95034e-07 3.86347e-08 0)
(-6.09452e-07 3.71546e-08 0)
(-6.23167e-07 3.56619e-08 0)
(-6.36185e-07 3.41592e-08 0)
(-6.48516e-07 3.26491e-08 0)
(-6.60167e-07 3.11341e-08 0)
(-6.71148e-07 2.96165e-08 0)
(-6.81471e-07 2.80984e-08 0)
(-6.91146e-07 2.65822e-08 0)
(-7.00184e-07 2.50698e-08 0)
(-7.08598e-07 2.35631e-08 0)
(-7.16401e-07 2.20639e-08 0)
(-7.23607e-07 2.05741e-08 0)
(-7.30227e-07 1.90953e-08 0)
(-7.36278e-07 1.76289e-08 0)
(-7.41773e-07 1.61765e-08 0)
(-7.46725e-07 1.47393e-08 0)
(-7.51151e-07 1.33186e-08 0)
(-7.55065e-07 1.19157e-08 0)
(-7.58481e-07 1.05315e-08 0)
(-7.61415e-07 9.16714e-09 0)
(-7.63882e-07 7.82344e-09 0)
(-7.65896e-07 6.50127e-09 0)
(-7.67473e-07 5.20139e-09 0)
(-7.68627e-07 3.92447e-09 0)
(-7.69374e-07 2.67115e-09 0)
(-7.69728e-07 1.44195e-09 0)
(-7.69703e-07 2.3737e-10 0)
(-7.69315e-07 -9.4218e-10 0)
(-7.68576e-07 -2.09634e-09 0)
(-7.67502e-07 -3.22481e-09 0)
(-7.66107e-07 -4.32735e-09 0)
(-7.64402e-07 -5.40376e-09 0)
(-7.62403e-07 -6.4539e-09 0)
(-7.60123e-07 -7.47766e-09 0)
(-7.57573e-07 -8.47501e-09 0)
(-7.54767e-07 -9.44593e-09 0)
(-7.51717e-07 -1.03904e-08 0)
(-7.48435e-07 -1.13086e-08 0)
(-7.44933e-07 -1.22006e-08 0)
(-7.41222e-07 -1.30664e-08 0)
(-7.37314e-07 -1.39063e-08 0)
(-7.33219e-07 -1.47205e-08 0)
(-7.28948e-07 -1.55091e-08 0)
(-7.24512e-07 -1.62725e-08 0)
(-7.19919e-07 -1.70109e-08 0)
(-7.15181e-07 -1.77245e-08 0)
(-7.10305e-07 -1.84138e-08 0)
(-7.05302e-07 -1.90789e-08 0)
(-7.00181e-07 -1.97203e-08 0)
(-6.94949e-07 -2.03384e-08 0)
(-6.89614e-07 -2.09334e-08 0)
(-6.84186e-07 -2.15058e-08 0)
(-6.78671e-07 -2.20559e-08 0)
(-6.73077e-07 -2.25842e-08 0)
(-1.69215e-08 1.0822e-07 0)
(-5.05879e-08 1.08044e-07 0)
(-8.38751e-08 1.07697e-07 0)
(-1.16733e-07 1.07184e-07 0)
(-1.49114e-07 1.06511e-07 0)
(-1.80974e-07 1.05683e-07 0)
(-2.12272e-07 1.04707e-07 0)
(-2.42971e-07 1.03589e-07 0)
(-2.73035e-07 1.02335e-07 0)
(-3.02433e-07 1.00951e-07 0)
(-3.31136e-07 9.94439e-08 0)
(-3.59118e-07 9.78203e-08 0)
(-3.86356e-07 9.60866e-08 0)
(-4.12828e-07 9.42493e-08 0)
(-4.38518e-07 9.23149e-08 0)
(-4.6341e-07 9.029e-08 0)
(-4.87491e-07 8.81808e-08 0)
(-5.10751e-07 8.59938e-08 0)
(-5.33181e-07 8.37351e-08 0)
(-5.54775e-07 8.1411e-08 0)
(-5.75529e-07 7.90273e-08 0)
(-5.95441e-07 7.659e-08 0)
(-6.1451e-07 7.41048e-08 0)
(-6.32739e-07 7.15774e-08 0)
(-6.5013e-07 6.9013e-08 0)
(-6.66687e-07 6.64171e-08 0)
(-6.82418e-07 6.37947e-08 0)
(-6.97329e-07 6.11507e-08 0)
(-7.11429e-07 5.84899e-08 0)
(-7.24728e-07 5.58168e-08 0)
(-7.37236e-07 5.31358e-08 0)
(-7.48967e-07 5.04511e-08 0)
(-7.59932e-07 4.77667e-08 0)
(-7.70145e-07 4.50864e-08 0)
(-7.7962e-07 4.24139e-08 0)
(-7.88372e-07 3.97525e-08 0)
(-7.96418e-07 3.71057e-08 0)
(-8.03773e-07 3.44763e-08 0)
(-8.10453e-07 3.18674e-08 0)
(-8.16476e-07 2.92817e-08 0)
(-8.21858e-07 2.67217e-08 0)
(-8.26618e-07 2.41899e-08 0)
(-8.30773e-07 2.16884e-08 0)
(-8.3434e-07 1.92193e-08 0)
(-8.37338e-07 1.67846e-08 0)
(-8.39785e-07 1.43859e-08 0)
(-8.41699e-07 1.2025e-08 0)
(-8.43097e-07 9.70319e-09 0)
(-8.43998e-07 7.42191e-09 0)
(-8.44421e-07 5.18232e-09 0)
(-8.44381e-07 2.98551e-09 0)
(-8.43898e-07 8.32409e-10 0)
(-8.42988e-07 -1.27614e-09 0)
(-8.41669e-07 -3.33941e-09 0)
(-8.39958e-07 -5.35681e-09 0)
(-8.37871e-07 -7.32781e-09 0)
(-8.35425e-07 -9.25202e-09 0)
(-8.32636e-07 -1.11291e-08 0)
(-8.2952e-07 -1.29589e-08 0)
(-8.26093e-07 -1.47411e-08 0)
(-8.2237e-07 -1.64758e-08 0)
(-8.18366e-07 -1.8163e-08 0)
(-8.14095e-07 -1.98026e-08 0)
(-8.09571e-07 -2.1395e-08 0)
(-8.04809e-07 -2.29403e-08 0)
(-7.99822e-07 -2.44387e-08 0)
(-7.94623e-07 -2.58906e-08 0)
(-7.89225e-07 -2.72963e-08 0)
(-7.83641e-07 -2.86563e-08 0)
(-7.77881e-07 -2.99711e-08 0)
(-7.71959e-07 -3.12411e-08 0)
(-7.65885e-07 -3.24668e-08 0)
(-7.59671e-07 -3.36489e-08 0)
(-7.53326e-07 -3.4788e-08 0)
(-7.46862e-07 -3.58847e-08 0)
(-7.40287e-07 -3.69396e-08 0)
(-7.33612e-07 -3.79535e-08 0)
(-7.26846e-07 -3.8927e-08 0)
(-7.19998e-07 -3.98608e-08 0)
(-7.13075e-07 -4.07558e-08 0)
(-2.00833e-08 1.61634e-07 0)
(-6.00378e-08 1.61363e-07 0)
(-9.95354e-08 1.60828e-07 0)
(-1.38512e-07 1.60037e-07 0)
(-1.76907e-07 1.59e-07 0)
(-2.14665e-07 1.57726e-07 0)
(-2.51734e-07 1.56223e-07 0)
(-2.88065e-07 1.54501e-07 0)
(-3.23614e-07 1.52569e-07 0)
(-3.58342e-07 1.50439e-07 0)
(-3.92211e-07 1.48119e-07 0)
(-4.25188e-07 1.45621e-07 0)
(-4.57244e-07 1.42953e-07 0)
(-4.88353e-07 1.40127e-07 0)
(-5.18493e-07 1.37152e-07 0)
(-5.47644e-07 1.34038e-07 0)
(-5.75791e-07 1.30796e-07 0)
(-6.02919e-07 1.27434e-07 0)
(-6.2902e-07 1.23964e-07 0)
(-6.54085e-07 1.20394e-07 0)
(-6.7811e-07 1.16734e-07 0)
(-7.01093e-07 1.12993e-07 0)
(-7.23033e-07 1.09179e-07 0)
(-7.43933e-07 1.05302e-07 0)
(-7.63797e-07 1.0137e-07 0)
(-7.82632e-07 9.73909e-08 0)
(-8.00445e-07 9.33729e-08 0)
(-8.17247e-07 8.93236e-08 0)
(-8.3305e-07 8.52502e-08 0)
(-8.47865e-07 8.11599e-08 0)
(-8.61709e-07 7.70595e-08 0)
(-8.74595e-07 7.29554e-08 0)
(-8.86541e-07 6.88538e-08 0)
(-8.97565e-07 6.47607e-08 0)
(-9.07685e-07 6.06816e-08 0)
(-9.1692e-07 5.66218e-08 0)
(-9.25292e-07 5.25865e-08 0)
(-9.3282e-07 4.85803e-08 0)
(-9.39526e-07 4.46078e-08 0)
(-9.45432e-07 4.06731e-08 0)
(-9.50561e-07 3.67801e-08 0)
(-9.54934e-07 3.29326e-08 0)
(-9.58574e-07 2.91339e-08 0)
(-9.61505e-07 2.53871e-08 0)
(-9.6375e-07 2.16953e-08 0)
(-9.65331e-07 1.8061e-08 0)
(-9.66272e-07 1.44868e-08 0)
(-9.66596e-07 1.09748e-08 0)
(-9.66326e-07 7.52704e-09 0)
(-9.65484e-07 4.14534e-09 0)
(-9.64094e-07 8.31298e-10 0)
(-9.62177e-07 -2.41368e-09 0)
(-9.59756e-07 -5.58835e-09 0)
(-9.56853e-07 -8.69168e-09 0)
(-9.53489e-07 -1.17228e-08 0)
(-9.49686e-07 -1.46809e-08 0)
(-9.45464e-07 -1.75655e-08 0)
(-9.40844e-07 -2.03761e-08 0)
(-9.35846e-07 -2.31125e-08 0)
(-9.30489e-07 -2.57744e-08 0)
(-9.24793e-07 -2.83619e-08 0)
(-9.18776e-07 -3.0875e-08 0)
(-9.12457e-07 -3.33138e-08 0)
(-9.05854e-07 -3.56788e-08 0)
(-8.98984e-07 -3.79703e-08 0)
(-8.91863e-07 -4.01887e-08 0)
(-8.84509e-07 -4.23345e-08 0)
(-8.76937e-07 -4.44086e-08 0)
(-8.69162e-07 -4.64114e-08 0)
(-8.612e-07 -4.83439e-08 0)
(-8.53064e-07 -5.02069e-08 0)
(-8.4477e-07 -5.20012e-08 0)
(-8.3633e-07 -5.37277e-08 0)
(-8.27757e-07 -5.53876e-08 0)
(-8.19064e-07 -5.69817e-08 0)
(-8.10264e-07 -5.85112e-08 0)
(-8.01367e-07 -5.99772e-08 0)
(-7.92385e-07 -6.13809e-08 0)
(-7.83329e-07 -6.27233e-08 0)
(-7.74208e-07 -6.40056e-08 0)
(-2.47889e-08 2.26403e-07 0)
(-7.41018e-08 2.26008e-07 0)
(-1.22841e-07 2.2523e-07 0)
(-1.70922e-07 2.24079e-07 0)
(-2.18264e-07 2.2257e-07 0)
(-2.64793e-07 2.20714e-07 0)
(-3.1044e-07 2.18527e-07 0)
(-3.55142e-07 2.16021e-07 0)
(-3.98839e-07 2.13211e-07 0)
(-4.41479e-07 2.10112e-07 0)
(-4.83012e-07 2.06738e-07 0)
(-5.23396e-07 2.03105e-07 0)
(-5.62591e-07 1.99227e-07 0)
(-6.00564e-07 1.95119e-07 0)
(-6.37285e-07 1.90796e-07 0)
(-6.72729e-07 1.86274e-07 0)
(-7.06875e-07 1.81565e-07 0)
(-7.39706e-07 1.76686e-07 0)
(-7.71209e-07 1.7165e-07 0)
(-8.01374e-07 1.66471e-07 0)
(-8.30196e-07 1.61164e-07 0)
(-8.57673e-07 1.55741e-07 0)
(-8.83804e-07 1.50215e-07 0)
(-9.08594e-07 1.446e-07 0)
(-9.32048e-07 1.38908e-07 0)
(-9.54177e-07 1.33151e-07 0)
(-9.74991e-07 1.2734e-07 0)
(-9.94504e-07 1.21488e-07 0)
(-1.01273e-06 1.15603e-07 0)
(-1.02969e-06 1.09698e-07 0)
(-1.04541e-06 1.03781e-07 0)
(-1.0599e-06 9.78623e-08 0)
(-1.07318e-06 9.19513e-08 0)
(-1.08529e-06 8.60563e-08 0)
(-1.09624e-06 8.01855e-08 0)
(-1.10606e-06 7.43467e-08 0)
(-1.11479e-06 6.85472e-08 0)
(-1.12244e-06 6.2794e-08 0)
(-1.12905e-06 5.70935e-08 0)
(-1.13464e-06 5.14519e-08 0)
(-1.13925e-06 4.58748e-08 0)
(-1.14291e-06 4.03676e-08 0)
(-1.14565e-06 3.49351e-08 0)
(-1.14749e-06 2.9582e-08 0)
(-1.14847e-06 2.43123e-08 0)
(-1.14862e-06 1.913e-08 0)
(-1.14797e-06 1.40386e-08 0)
(-1.14655e-06 9.04109e-09 0)
(-1.14439e-06 4.14047e-09 0)
(-1.14153e-06 -6.6077e-10 0)
(-1.13799e-06 -5.36037e-09 0)
(-1.1338e-06 -9.95638e-09 0)
(-1.12899e-06 -1.44471e-08 0)
(-1.12359e-06 -1.88311e-08 0)
(-1.11763e-06 -2.31071e-08 0)
(-1.11114e-06 -2.72743e-08 0)
(-1.10414e-06 -3.13319e-08 0)
(-1.09667e-06 -3.52794e-08 0)
(-1.08874e-06 -3.91164e-08 0)
(-1.08038e-06 -4.28429e-08 0)
(-1.07163e-06 -4.64589e-08 0)
(-1.06249e-06 -4.99646e-08 0)
(-1.05301e-06 -5.33604e-08 0)
(-1.04319e-06 -5.66468e-08 0)
(-1.03307e-06 -5.98245e-08 0)
(-1.02266e-06 -6.28943e-08 0)
(-1.01199e-06 -6.58571e-08 0)
(-1.00107e-06 -6.8714e-08 0)
(-9.89935e-07 -7.14661e-08 0)
(-9.78593e-07 -7.41147e-08 0)
(-9.67066e-07 -7.6661e-08 0)
(-9.55372e-07 -7.91064e-08 0)
(-9.43528e-07 -8.14525e-08 0)
(-9.31551e-07 -8.37008e-08 0)
(-9.19456e-07 -8.58528e-08 0)
(-9.0726e-07 -8.79103e-08 0)
(-8.94976e-07 -8.98749e-08 0)
(-8.8262e-07 -9.17484e-08 0)
(-8.70205e-07 -9.35325e-08 0)
(-8.57743e-07 -9.52292e-08 0)
(-3.15375e-08 3.07706e-07 0)
(-9.42711e-08 3.07145e-07 0)
(-1.56262e-07 3.06038e-07 0)
(-2.17395e-07 3.04404e-07 0)
(-2.77561e-07 3.02259e-07 0)
(-3.36658e-07 2.99624e-07 0)
(-3.94593e-07 2.96516e-07 0)
(-4.51278e-07 2.92958e-07 0)
(-5.06634e-07 2.88968e-07 0)
(-5.60588e-07 2.84569e-07 0)
(-6.13075e-07 2.79781e-07 0)
(-6.64034e-07 2.74625e-07 0)
(-7.13414e-07 2.69124e-07 0)
(-7.61169e-07 2.63298e-07 0)
(-8.07259e-07 2.5717e-07 0)
(-8.51649e-07 2.50759e-07 0)
(-8.94313e-07 2.44089e-07 0)
(-9.35226e-07 2.37178e-07 0)
(-9.74373e-07 2.30049e-07 0)
(-1.01174e-06 2.2272e-07 0)
(-1.04732e-06 2.15213e-07 0)
(-1.08112e-06 2.07545e-07 0)
(-1.11312e-06 1.99737e-07 0)
(-1.14335e-06 1.91806e-07 0)
(-1.1718e-06 1.8377e-07 0)
(-1.19849e-06 1.75647e-07 0)
(-1.22344e-06 1.67454e-07 0)
(-1.24667e-06 1.59205e-07 0)
(-1.2682e-06 1.50917e-07 0)
(-1.28805e-06 1.42605e-07 0)
(-1.30625e-06 1.34283e-07 0)
(-1.32284e-06 1.25965e-07 0)
(-1.33784e-06 1.17662e-07 0)
(-1.35128e-06 1.09389e-07 0)
(-1.36321e-06 1.01156e-07 0)
(-1.37366e-06 9.29746e-08 0)
(-1.38267e-06 8.48552e-08 0)
(-1.39028e-06 7.68076e-08 0)
(-1.39651e-06 6.88411e-08 0)
(-1.40143e-06 6.09643e-08 0)
(-1.40507e-06 5.31853e-08 0)
(-1.40746e-06 4.55114e-08 0)
(-1.40866e-06 3.79497e-08 0)
(-1.4087e-06 3.05066e-08 0)
(-1.40763e-06 2.31878e-08 0)
(-1.40549e-06 1.59988e-08 0)
(-1.40232e-06 8.94443e-09 0)
(-1.39816e-06 2.029e-09 0)
(-1.39306e-06 -4.74354e-09 0)
(-1.38706e-06 -1.13697e-08 0)
(-1.3802e-06 -1.78465e-08 0)
(-1.37252e-06 -2.41712e-08 0)
(-1.36405e-06 -3.03416e-08 0)
(-1.35485e-06 -3.63558e-08 0)
(-1.34494e-06 -4.22123e-08 0)
(-1.33437e-06 -4.791e-08 0)
(-1.32317e-06 -5.34478e-08 0)
(-1.31138e-06 -5.88254e-08 0)
(-1.29903e-06 -6.40424e-08 0)
(-1.28617e-06 -6.90988e-08 0)
(-1.27281e-06 -7.3995e-08 0)
(-1.25901e-06 -7.87313e-08 0)
(-1.24478e-06 -8.33085e-08 0)
(-1.23017e-06 -8.77276e-08 0)
(-1.21519e-06 -9.19897e-08 0)
(-1.19988e-06 -9.60962e-08 0)
(-1.18428e-06 -1.00048e-07 0)
(-1.1684e-06 -1.03848e-07 0)
(-1.15227e-06 -1.07497e-07 0)
(-1.13591e-06 -1.10997e-07 0)
(-1.11936e-06 -1.14351e-07 0)
(-1.10264e-06 -1.1756e-07 0)
(-1.08577e-06 -1.20626e-07 0)
(-1.06876e-06 -1.23553e-07 0)
(-1.05165e-06 -1.26342e-07 0)
(-1.03445e-06 -1.28996e-07 0)
(-1.01719e-06 -1.31518e-07 0)
(-9.99871e-07 -1.3391e-07 0)
(-9.82522e-07 -1.36175e-07 0)
(-9.65157e-07 -1.38315e-07 0)
(-4.10646e-08 4.12501e-07 0)
(-1.22744e-07 4.11712e-07 0)
(-2.03441e-07 4.10155e-07 0)
(-2.82994e-07 4.07855e-07 0)
(-3.61252e-07 4.04838e-07 0)
(-4.38075e-07 4.0113e-07 0)
(-5.13333e-07 3.9676e-07 0)
(-5.86904e-07 3.91755e-07 0)
(-6.58678e-07 3.86146e-07 0)
(-7.28555e-07 3.79961e-07 0)
(-7.96443e-07 3.73232e-07 0)
(-8.62261e-07 3.65988e-07 0)
(-9.25936e-07 3.58261e-07 0)
(-9.87405e-07 3.5008e-07 0)
(-1.04661e-06 3.41477e-07 0)
(-1.10351e-06 3.32481e-07 0)
(-1.15807e-06 3.23123e-07 0)
(-1.21025e-06 3.13433e-07 0)
(-1.26003e-06 3.0344e-07 0)
(-1.30739e-06 2.93173e-07 0)
(-1.35233e-06 2.82659e-07 0)
(-1.39484e-06 2.71928e-07 0)
(-1.43493e-06 2.61004e-07 0)
(-1.4726e-06 2.49915e-07 0)
(-1.50787e-06 2.38686e-07 0)
(-1.54076e-06 2.27342e-07 0)
(-1.57129e-06 2.15906e-07 0)
(-1.59949e-06 2.04401e-07 0)
(-1.6254e-06 1.9285e-07 0)
(-1.64904e-06 1.81272e-07 0)
(-1.67045e-06 1.69689e-07 0)
(-1.68969e-06 1.5812e-07 0)
(-1.7068e-06 1.46583e-07 0)
(-1.72181e-06 1.35096e-07 0)
(-1.73479e-06 1.23675e-07 0)
(-1.74579e-06 1.12335e-07 0)
(-1.75485e-06 1.01092e-07 0)
(-1.76203e-06 8.99593e-08 0)
(-1.7674e-06 7.89499e-08 0)
(-1.771e-06 6.80758e-08 0)
(-1.77289e-06 5.73484e-08 0)
(-1.77314e-06 4.67781e-08 0)
(-1.7718e-06 3.63745e-08 0)
(-1.76893e-06 2.61465e-08 0)
(-1.76459e-06 1.61022e-08 0)
(-1.75885e-06 6.24903e-09 0)
(-1.75175e-06 -3.40643e-09 0)
(-1.74336e-06 -1.28582e-08 0)
(-1.73374e-06 -2.21009e-08 0)
(-1.72294e-06 -3.113e-08 0)
(-1.71103e-06 -3.99413e-08 0)
(-1.69805e-06 -4.85313e-08 0)
(-1.68407e-06 -5.68972e-08 0)
(-1.66914e-06 -6.50366e-08 0)
(-1.65331e-06 -7.29475e-08 0)
(-1.63663e-06 -8.06286e-08 0)
(-1.61916e-06 -8.80789e-08 0)
(-1.60095e-06 -9.5298e-08 0)
(-1.58204e-06 -1.02286e-07 0)
(-1.56249e-06 -1.09042e-07 0)
(-1.54234e-06 -1.15569e-07 0)
(-1.52163e-06 -1.21865e-07 0)
(-1.50042e-06 -1.27934e-07 0)
(-1.47873e-06 -1.33776e-07 0)
(-1.45662e-06 -1.39394e-07 0)
(-1.43412e-06 -1.44789e-07 0)
(-1.41128e-06 -1.49965e-07 0)
(-1.38813e-06 -1.54922e-07 0)
(-1.3647e-06 -1.59666e-07 0)
(-1.34103e-06 -1.64197e-07 0)
(-1.31715e-06 -1.6852e-07 0)
(-1.2931e-06 -1.72638e-07 0)
(-1.26891e-06 -1.76554e-07 0)
(-1.2446e-06 -1.80272e-07 0)
(-1.22021e-06 -1.83796e-07 0)
(-1.19576e-06 -1.87129e-07 0)
(-1.17127e-06 -1.90275e-07 0)
(-1.14678e-06 -1.93239e-07 0)
(-1.1223e-06 -1.96023e-07 0)
(-1.09785e-06 -1.98633e-07 0)
(-5.44399e-08 5.50355e-07 0)
(-1.62716e-07 5.49246e-07 0)
(-2.6967e-07 5.47061e-07 0)
(-3.75073e-07 5.43833e-07 0)
(-4.78716e-07 5.39599e-07 0)
(-5.80401e-07 5.34397e-07 0)
(-6.79943e-07 5.28266e-07 0)
(-7.77174e-07 5.21246e-07 0)
(-8.71939e-07 5.13379e-07 0)
(-9.64097e-07 5.04708e-07 0)
(-1.05352e-06 4.95275e-07 0)
(-1.14009e-06 4.85123e-07 0)
(-1.22372e-06 4.74296e-07 0)
(-1.3043e-06 4.62838e-07 0)
(-1.38177e-06 4.50792e-07 0)
(-1.45606e-06 4.38201e-07 0)
(-1.52711e-06 4.25108e-07 0)
(-1.59489e-06 4.11555e-07 0)
(-1.65937e-06 3.97585e-07 0)
(-1.72051e-06 3.83238e-07 0)
(-1.77832e-06 3.68554e-07 0)
(-1.83278e-06 3.53572e-07 0)
(-1.88391e-06 3.38331e-07 0)
(-1.93171e-06 3.22868e-07 0)
(-1.97621e-06 3.07219e-07 0)
(-2.01743e-06 2.91419e-07 0)
(-2.05542e-06 2.75502e-07 0)
(-2.0902e-06 2.59499e-07 0)
(-2.12184e-06 2.43443e-07 0)
(-2.15037e-06 2.27364e-07 0)
(-2.17586e-06 2.11289e-07 0)
(-2.19837e-06 1.95246e-07 0)
(-2.21796e-06 1.79261e-07 0)
(-2.2347e-06 1.63359e-07 0)
(-2.24866e-06 1.47563e-07 0)
(-2.25991e-06 1.31896e-07 0)
(-2.26854e-06 1.16377e-07 0)
(-2.27462e-06 1.01026e-07 0)
(-2.27823e-06 8.58618e-08 0)
(-2.27945e-06 7.09008e-08 0)
(-2.27837e-06 5.6159e-08 0)
(-2.27506e-06 4.16509e-08 0)
(-2.26961e-06 2.73897e-08 0)
(-2.26211e-06 1.33879e-08 0)
(-2.25265e-06 -3.43455e-10 0)
(-2.24129e-06 -1.37942e-08 0)
(-2.22814e-06 -2.69553e-08 0)
(-2.21326e-06 -3.98186e-08 0)
(-2.19675e-06 -5.2377e-08 0)
(-2.17868e-06 -6.46242e-08 0)
(-2.15915e-06 -7.65548e-08 0)
(-2.13821e-06 -8.81643e-08 0)
(-2.11596e-06 -9.94491e-08 0)
(-2.09247e-06 -1.10406e-07 0)
(-2.06782e-06 -1.21033e-07 0)
(-2.04207e-06 -1.31328e-07 0)
(-2.01531e-06 -1.41291e-07 0)
(-1.98759e-06 -1.50921e-07 0)
(-1.959e-06 -1.60219e-07 0)
(-1.9296e-06 -1.69185e-07 0)
(-1.89944e-06 -1.7782e-07 0)
(-1.86861e-06 -1.86128e-07 0)
(-1.83714e-06 -1.94109e-07 0)
(-1.80512e-06 -2.01767e-07 0)
(-1.77258e-06 -2.09104e-07 0)
(-1.73959e-06 -2.16125e-07 0)
(-1.70621e-06 -2.22832e-07 0)
(-1.67247e-06 -2.2923e-07 0)
(-1.63844e-06 -2.35324e-07 0)
(-1.60416e-06 -2.41118e-07 0)
(-1.56967e-06 -2.46617e-07 0)
(-1.53502e-06 -2.51826e-07 0)
(-1.50024e-06 -2.56749e-07 0)
(-1.46539e-06 -2.61394e-07 0)
(-1.4305e-06 -2.65764e-07 0)
(-1.3956e-06 -2.69867e-07 0)
(-1.36073e-06 -2.73707e-07 0)
(-1.32592e-06 -2.7729e-07 0)
(-1.29121e-06 -2.80623e-07 0)
(-1.25662e-06 -2.83712e-07 0)
(-7.32091e-08 7.34606e-07 0)
(-2.18807e-07 7.33048e-07 0)
(-3.626e-07 7.29978e-07 0)
(-5.04267e-07 7.25444e-07 0)
(-6.4351e-07 7.19497e-07 0)
(-7.80047e-07 7.1219e-07 0)
(-9.13621e-07 7.03579e-07 0)
(-1.04399e-06 6.93722e-07 0)
(-1.17094e-06 6.82678e-07 0)
(-1.29426e-06 6.70506e-07 0)
(-1.41378e-06 6.57267e-07 0)
(-1.52934e-06 6.43024e-07 0)
(-1.64079e-06 6.27838e-07 0)
(-1.74801e-06 6.11771e-07 0)
(-1.85088e-06 5.94885e-07 0)
(-1.94933e-06 5.77241e-07 0)
(-2.04328e-06 5.589e-07 0)
(-2.13265e-06 5.39923e-07 0)
(-2.21743e-06 5.20369e-07 0)
(-2.29756e-06 5.00296e-07 0)
(-2.37305e-06 4.79762e-07 0)
(-2.44388e-06 4.58821e-07 0)
(-2.51006e-06 4.3753e-07 0)
(-2.57161e-06 4.15941e-07 0)
(-2.62858e-06 3.94104e-07 0)
(-2.68099e-06 3.72071e-07 0)
(-2.7289e-06 3.49888e-07 0)
(-2.77236e-06 3.27602e-07 0)
(-2.81146e-06 3.05258e-07 0)
(-2.84625e-06 2.82897e-07 0)
(-2.87682e-06 2.60561e-07 0)
(-2.90327e-06 2.38287e-07 0)
(-2.92568e-06 2.16114e-07 0)
(-2.94415e-06 1.94075e-07 0)
(-2.95879e-06 1.72205e-07 0)
(-2.9697e-06 1.50533e-07 0)
(-2.97699e-06 1.29089e-07 0)
(-2.98078e-06 1.079e-07 0)
(-2.98117e-06 8.6993e-08 0)
(-2.97829e-06 6.63904e-08 0)
(-2.97226e-06 4.61146e-08 0)
(-2.96319e-06 2.61858e-08 0)
(-2.95121e-06 6.62279e-09 0)
(-2.93643e-06 -1.25575e-08 0)
(-2.91897e-06 -3.13397e-08 0)
(-2.89897e-06 -4.97098e-08 0)
(-2.87652e-06 -6.76555e-08 0)
(-2.85176e-06 -8.51657e-08 0)
(-2.82481e-06 -1.02231e-07 0)
(-2.79577e-06 -1.18842e-07 0)
(-2.76476e-06 -1.34994e-07 0)
(-2.7319e-06 -1.50678e-07 0)
(-2.6973e-06 -1.65892e-07 0)
(-2.66106e-06 -1.80631e-07 0)
(-2.6233e-06 -1.94893e-07 0)
(-2.58411e-06 -2.08676e-07 0)
(-2.5436e-06 -2.2198e-07 0)
(-2.50187e-06 -2.34804e-07 0)
(-2.45901e-06 -2.4715e-07 0)
(-2.41512e-06 -2.5902e-07 0)
(-2.37029e-06 -2.70416e-07 0)
(-2.32461e-06 -2.81342e-07 0)
(-2.27817e-06 -2.91801e-07 0)
(-2.23104e-06 -3.01797e-07 0)
(-2.18331e-06 -3.11337e-07 0)
(-2.13505e-06 -3.20425e-07 0)
(-2.08634e-06 -3.29067e-07 0)
(-2.03724e-06 -3.3727e-07 0)
(-1.98784e-06 -3.4504e-07 0)
(-1.93819e-06 -3.52386e-07 0)
(-1.88836e-06 -3.59313e-07 0)
(-1.8384e-06 -3.6583e-07 0)
(-1.78838e-06 -3.71945e-07 0)
(-1.73834e-06 -3.77666e-07 0)
(-1.68835e-06 -3.83001e-07 0)
(-1.63845e-06 -3.87959e-07 0)
(-1.58869e-06 -3.92549e-07 0)
(-1.53911e-06 -3.9678e-07 0)
(-1.48975e-06 -4.00659e-07 0)
(-1.44066e-06 -4.04197e-07 0)
(-9.96019e-08 9.84045e-07 0)
(-2.97679e-07 9.8185e-07 0)
(-4.93268e-07 9.77526e-07 0)
(-6.85913e-07 9.71139e-07 0)
(-8.75187e-07 9.62762e-07 0)
(-1.06069e-06 9.52471e-07 0)
(-1.24206e-06 9.40345e-07 0)
(-1.41895e-06 9.26466e-07 0)
(-1.59105e-06 9.10917e-07 0)
(-1.75807e-06 8.93783e-07 0)
(-1.91976e-06 8.75152e-07 0)
(-2.07589e-06 8.55111e-07 0)
(-2.22625e-06 8.33748e-07 0)
(-2.37067e-06 8.11152e-07 0)
(-2.509e-06 7.8741e-07 0)
(-2.6411e-06 7.6261e-07 0)
(-2.76688e-06 7.3684e-07 0)
(-2.88624e-06 7.10185e-07 0)
(-2.99913e-06 6.82729e-07 0)
(-3.1055e-06 6.54557e-07 0)
(-3.20534e-06 6.25749e-07 0)
(-3.29864e-06 5.96386e-07 0)
(-3.38542e-06 5.66545e-07 0)
(-3.4657e-06 5.36302e-07 0)
(-3.53954e-06 5.0573e-07 0)
(-3.60698e-06 4.749e-07 0)
(-3.66812e-06 4.4388e-07 0)
(-3.72303e-06 4.12737e-07 0)
(-3.77181e-06 3.81534e-07 0)
(-3.81457e-06 3.50331e-07 0)
(-3.85144e-06 3.19187e-07 0)
(-3.88253e-06 2.88156e-07 0)
(-3.90798e-06 2.5729e-07 0)
(-3.92794e-06 2.2664e-07 0)
(-3.94256e-06 1.96252e-07 0)
(-3.95198e-06 1.66171e-07 0)
(-3.95637e-06 1.36438e-07 0)
(-3.95589e-06 1.07091e-07 0)
(-3.95071e-06 7.81666e-08 0)
(-3.94099e-06 4.96988e-08 0)
(-3.92692e-06 2.17182e-08 0)
(-3.90865e-06 -5.74665e-09 0)
(-3.88636e-06 -3.26697e-08 0)
(-3.86023e-06 -5.90272e-08 0)
(-3.83044e-06 -8.47978e-08 0)
(-3.79715e-06 -1.09962e-07 0)
(-3.76053e-06 -1.34503e-07 0)
(-3.72076e-06 -1.58406e-07 0)
(-3.67801e-06 -1.81658e-07 0)
(-3.63244e-06 -2.04248e-07 0)
(-3.58422e-06 -2.26165e-07 0)
(-3.53351e-06 -2.47404e-07 0)
(-3.48047e-06 -2.67958e-07 0)
(-3.42526e-06 -2.87822e-07 0)
(-3.36802e-06 -3.06995e-07 0)
(-3.30891e-06 -3.25473e-07 0)
(-3.24808e-06 -3.43259e-07 0)
(-3.18565e-06 -3.60352e-07 0)
(-3.12178e-06 -3.76755e-07 0)
(-3.0566e-06 -3.92473e-07 0)
(-2.99023e-06 -4.07508e-07 0)
(-2.9228e-06 -4.21868e-07 0)
(-2.85443e-06 -4.35557e-07 0)
(-2.78524e-06 -4.48585e-07 0)
(-2.71535e-06 -4.60958e-07 0)
(-2.64485e-06 -4.72686e-07 0)
(-2.57386e-06 -4.83778e-07 0)
(-2.50247e-06 -4.94243e-07 0)
(-2.43078e-06 -5.04093e-07 0)
(-2.35888e-06 -5.13339e-07 0)
(-2.28687e-06 -5.21992e-07 0)
(-2.21482e-06 -5.30063e-07 0)
(-2.14281e-06 -5.37566e-07 0)
(-2.07092e-06 -5.44511e-07 0)
(-1.99922e-06 -5.50913e-07 0)
(-1.92778e-06 -5.56784e-07 0)
(-1.85666e-06 -5.62137e-07 0)
(-1.78592e-06 -5.66985e-07 0)
(-1.71563e-06 -5.71341e-07 0)
(-1.64584e-06 -5.7522e-07 0)
(-1.3683e-07 1.32532e-06 0)
(-4.0893e-07 1.32221e-06 0)
(-6.77571e-07 1.3161e-06 0)
(-9.42105e-07 1.30708e-06 0)
(-1.20192e-06 1.29524e-06 0)
(-1.45645e-06 1.2807e-06 0)
(-1.70516e-06 1.26357e-06 0)
(-1.94758e-06 1.24396e-06 0)
(-2.18325e-06 1.222e-06 0)
(-2.41176e-06 1.1978e-06 0)
(-2.63275e-06 1.17149e-06 0)
(-2.8459e-06 1.14319e-06 0)
(-3.0509e-06 1.11303e-06 0)
(-3.24751e-06 1.08114e-06 0)
(-3.43551e-06 1.04763e-06 0)
(-3.61471e-06 1.01264e-06 0)
(-3.78496e-06 9.76293e-07 0)
(-3.94614e-06 9.38706e-07 0)
(-4.09817e-06 9.00003e-07 0)
(-4.24098e-06 8.60303e-07 0)
(-4.37455e-06 8.19722e-07 0)
(-4.49887e-06 7.78375e-07 0)
(-4.61397e-06 7.36372e-07 0)
(-4.71987e-06 6.93823e-07 0)
(-4.81667e-06 6.50833e-07 0)
(-4.90443e-06 6.07502e-07 0)
(-4.98327e-06 5.6393e-07 0)
(-5.05332e-06 5.2021e-07 0)
(-5.11472e-06 4.76434e-07 0)
(-5.16762e-06 4.32689e-07 0)
(-5.2122e-06 3.89057e-07 0)
(-5.24864e-06 3.45617e-07 0)
(-5.27714e-06 3.02446e-07 0)
(-5.29791e-06 2.59613e-07 0)
(-5.31115e-06 2.17186e-07 0)
(-5.31711e-06 1.75228e-07 0)
(-5.316e-06 1.33798e-07 0)
(-5.30806e-06 9.29519e-08 0)
(-5.29355e-06 5.2741e-08 0)
(-5.27269e-06 1.3213e-08 0)
(-5.24574e-06 -2.55883e-08 0)
(-5.21295e-06 -6.36223e-08 0)
(-5.17458e-06 -1.00852e-07 0)
(-5.13087e-06 -1.37245e-07 0)
(-5.08208e-06 -1.7277e-07 0)
(-5.02846e-06 -2.07401e-07 0)
(-4.97026e-06 -2.41114e-07 0)
(-4.90773e-06 -2.73888e-07 0)
(-4.84111e-06 -3.05706e-07 0)
(-4.77065e-06 -3.36553e-07 0)
(-4.69658e-06 -3.66417e-07 0)
(-4.61914e-06 -3.95287e-07 0)
(-4.53855e-06 -4.23157e-07 0)
(-4.45505e-06 -4.50021e-07 0)
(-4.36886e-06 -4.75878e-07 0)
(-4.28018e-06 -5.00726e-07 0)
(-4.18923e-06 -5.24566e-07 0)
(-4.09622e-06 -5.47401e-07 0)
(-4.00133e-06 -5.69237e-07 0)
(-3.90477e-06 -5.9008e-07 0)
(-3.80672e-06 -6.09938e-07 0)
(-3.70735e-06 -6.2882e-07 0)
(-3.60685e-06 -6.46736e-07 0)
(-3.50537e-06 -6.637e-07 0)
(-3.40308e-06 -6.79722e-07 0)
(-3.30013e-06 -6.94819e-07 0)
(-3.19668e-06 -7.09004e-07 0)
(-3.09286e-06 -7.22292e-07 0)
(-2.9888e-06 -7.34702e-07 0)
(-2.88464e-06 -7.46249e-07 0)
(-2.7805e-06 -7.56951e-07 0)
(-2.6765e-06 -7.66826e-07 0)
(-2.57274e-06 -7.75894e-07 0)
(-2.46934e-06 -7.84173e-07 0)
(-2.36639e-06 -7.91682e-07 0)
(-2.26399e-06 -7.98441e-07 0)
(-2.16222e-06 -8.0447e-07 0)
(-2.06118e-06 -8.09788e-07 0)
(-1.96093e-06 -8.14416e-07 0)
(-1.86156e-06 -8.18374e-07 0)
(-1.8951e-07 1.79636e-06 0)
(-5.66352e-07 1.79197e-06 0)
(-9.3836e-07 1.78331e-06 0)
(-1.3046e-06 1.77052e-06 0)
(-1.66421e-06 1.75374e-06 0)
(-2.01638e-06 1.73314e-06 0)
(-2.36034e-06 1.70886e-06 0)
(-2.69539e-06 1.68108e-06 0)
(-3.02092e-06 1.64996e-06 0)
(-3.33632e-06 1.61567e-06 0)
(-3.64107e-06 1.57839e-06 0)
(-3.9347e-06 1.5383e-06 0)
(-4.21678e-06 1.49558e-06 0)
(-4.48697e-06 1.4504e-06 0)
(-4.74493e-06 1.40295e-06 0)
(-4.9904e-06 1.35339e-06 0)
(-5.22316e-06 1.30193e-06 0)
(-5.44303e-06 1.24871e-06 0)
(-5.6499e-06 1.19393e-06 0)
(-5.84366e-06 1.13774e-06 0)
(-6.02428e-06 1.08033e-06 0)
(-6.19174e-06 1.02184e-06 0)
(-6.34607e-06 9.62452e-07 0)
(-6.48734e-06 9.02307e-07 0)
(-6.61563e-06 8.4156e-07 0)
(-6.73108e-06 7.80358e-07 0)
(-6.83384e-06 7.18842e-07 0)
(-6.92408e-06 6.57149e-07 0)
(-7.00202e-06 5.95409e-07 0)
(-7.06788e-06 5.33749e-07 0)
(-7.1219e-06 4.72288e-07 0)
(-7.16436e-06 4.11141e-07 0)
(-7.19554e-06 3.50416e-07 0)
(-7.21575e-06 2.90215e-07 0)
(-7.22528e-06 2.30636e-07 0)
(-7.22448e-06 1.71771e-07 0)
(-7.21368e-06 1.13705e-07 0)
(-7.19322e-06 5.65171e-08 0)
(-7.16346e-06 2.8247e-10 0)
(-7.12474e-06 -5.49303e-08 0)
(-7.07745e-06 -1.09058e-07 0)
(-7.02194e-06 -1.62042e-07 0)
(-6.95859e-06 -2.13831e-07 0)
(-6.88775e-06 -2.64376e-07 0)
(-6.80981e-06 -3.13634e-07 0)
(-6.72513e-06 -3.61568e-07 0)
(-6.63407e-06 -4.08145e-07 0)
(-6.53701e-06 -4.53335e-07 0)
(-6.43429e-06 -4.97114e-07 0)
(-6.32627e-06 -5.39462e-07 0)
(-6.21331e-06 -5.80362e-07 0)
(-6.09573e-06 -6.19802e-07 0)
(-5.97389e-06 -6.57772e-07 0)
(-5.84811e-06 -6.94268e-07 0)
(-5.71871e-06 -7.29286e-07 0)
(-5.586e-06 -7.62828e-07 0)
(-5.4503e-06 -7.94897e-07 0)
(-5.31189e-06 -8.25499e-07 0)
(-5.17106e-06 -8.54644e-07 0)
(-5.0281e-06 -8.82342e-07 0)
(-4.88326e-06 -9.08608e-07 0)
(-4.73682e-06 -9.33456e-07 0)
(-4.58902e-06 -9.56905e-07 0)
(-4.4401e-06 -9.78973e-07 0)
(-4.2903e-06 -9.99681e-07 0)
(-4.13983e-06 -1.01905e-06 0)
(-3.9889e-06 -1.03711e-06 0)
(-3.83772e-06 -1.05388e-06 0)
(-3.68649e-06 -1.06938e-06 0)
(-3.53538e-06 -1.08365e-06 0)
(-3.38456e-06 -1.0967e-06 0)
(-3.23421e-06 -1.10858e-06 0)
(-3.08449e-06 -1.1193e-06 0)
(-2.93553e-06 -1.1289e-06 0)
(-2.78748e-06 -1.13741e-06 0)
(-2.64046e-06 -1.14485e-06 0)
(-2.49461e-06 -1.15126e-06 0)
(-2.35004e-06 -1.15667e-06 0)
(-2.20685e-06 -1.1611e-06 0)
(-2.06515e-06 -1.16459e-06 0)
(-2.64238e-07 2.45131e-06 0)
(-7.89664e-07 2.44508e-06 0)
(-1.3083e-06 2.43278e-06 0)
(-1.81883e-06 2.41463e-06 0)
(-2.32001e-06 2.39082e-06 0)
(-2.81068e-06 2.36157e-06 0)
(-3.28976e-06 2.3271e-06 0)
(-3.75625e-06 2.28766e-06 0)
(-4.20925e-06 2.24347e-06 0)
(-4.6479e-06 2.19478e-06 0)
(-5.07145e-06 2.14184e-06 0)
(-5.47923e-06 2.0849e-06 0)
(-5.87061e-06 2.02421e-06 0)
(-6.24508e-06 1.96004e-06 0)
(-6.60217e-06 1.89262e-06 0)
(-6.94149e-06 1.82223e-06 0)
(-7.26271e-06 1.7491e-06 0)
(-7.56557e-06 1.6735e-06 0)
(-7.84988e-06 1.59566e-06 0)
(-8.1155e-06 1.51584e-06 0)
(-8.36235e-06 1.43427e-06 0)
(-8.59041e-06 1.35119e-06 0)
(-8.79971e-06 1.26683e-06 0)
(-8.99032e-06 1.18141e-06 0)
(-9.16238e-06 1.09515e-06 0)
(-9.31605e-06 1.00826e-06 0)
(-9.45155e-06 9.20956e-07 0)
(-9.56914e-06 8.33424e-07 0)
(-9.66909e-06 7.45859e-07 0)
(-9.75175e-06 6.58443e-07 0)
(-9.81745e-06 5.7135e-07 0)
(-9.86659e-06 4.84748e-07 0)
(-9.89957e-06 3.98796e-07 0)
(-9.91683e-06 3.13644e-07 0)
(-9.91882e-06 2.29433e-07 0)
(-9.90602e-06 1.46299e-07 0)
(-9.87892e-06 6.43657e-08 0)
(-9.83802e-06 -1.62487e-08 0)
(-9.78384e-06 -9.54354e-08 0)
(-9.71689e-06 -1.73094e-07 0)
(-9.63773e-06 -2.4913e-07 0)
(-9.54688e-06 -3.23461e-07 0)
(-9.44488e-06 -3.96008e-07 0)
(-9.33229e-06 -4.66701e-07 0)