/*--------------------------------*- C++ -*----------------------------------*\
  =========                 |
  \\      /  F ield         | OpenFOAM: The Open Source CFD Toolbox
   \\    /   O peration     | Website:  https://openfoam.org
    \\  /    A nd           | Version:  8
     \\/     M anipulation  |
\*---------------------------------------------------------------------------*/
FoamFile
{
    version     2.0;
    format      ascii;
    class       volVectorField;
    location    "4000";
    object      Ub;
}
// * * * * * * * * * * * * * * * * * * * * * * * * * * * * * * * * * * * * * //

dimensions      [0 1 -1 0 0 0 0];

internalField   nonuniform List<vector> 
12800
(
(-2.4957e-19 -4.93008e-13 0)
(-7.46141e-19 -4.93008e-13 0)
(-1.23722e-18 -4.93008e-13 0)
(-1.72214e-18 -4.93008e-13 0)
(-2.20025e-18 -4.93008e-13 0)
(-2.67097e-18 -4.93008e-13 0)
(-3.13374e-18 -4.93008e-13 0)
(-3.58805e-18 -4.93008e-13 0)
(-4.03344e-18 -4.93008e-13 0)
(-4.46946e-18 -4.93008e-13 0)
(-4.89574e-18 -4.93008e-13 0)
(-5.31192e-18 -4.93008e-13 0)
(-5.71769e-18 -4.93008e-13 0)
(-6.11275e-18 -4.93008e-13 0)
(-6.49688e-18 -4.93008e-13 0)
(-6.86986e-18 -4.93008e-13 0)
(-7.23151e-18 -4.93008e-13 0)
(-7.58169e-18 -4.93008e-13 0)
(-7.92027e-18 -4.93008e-13 0)
(-8.24718e-18 -4.93008e-13 0)
(-8.56235e-18 -4.93008e-13 0)
(-8.86575e-18 -4.93008e-13 0)
(-9.15736e-18 -4.93008e-13 0)
(-9.4372e-18 -4.93008e-13 0)
(-9.70531e-18 -4.93008e-13 0)
(-9.96174e-18 -4.93008e-13 0)
(-1.02066e-17 -4.93008e-13 0)
(-1.04399e-17 -4.93008e-13 0)
(-1.06618e-17 -4.93008e-13 0)
(-1.08724e-17 -4.93008e-13 0)
(-1.10719e-17 -4.93008e-13 0)
(-1.12605e-17 -4.93008e-13 0)
(-1.14382e-17 -4.93008e-13 0)
(-1.16053e-17 -4.93008e-13 0)
(-1.17619e-17 -4.93008e-13 0)
(-1.19083e-17 -4.93008e-13 0)
(-1.20446e-17 -4.93008e-13 0)
(-1.21711e-17 -4.93008e-13 0)
(-1.2288e-17 -4.93008e-13 0)
(-1.23955e-17 -4.93008e-13 0)
(-1.24938e-17 -4.93008e-13 0)
(-1.25831e-17 -4.93008e-13 0)
(-1.26638e-17 -4.93008e-13 0)
(-1.2736e-17 -4.93008e-13 0)
(-1.28e-17 -4.93008e-13 0)
(-1.2856e-17 -4.93008e-13 0)
(-1.29042e-17 -4.93008e-13 0)
(-1.2945e-17 -4.93008e-13 0)
(-1.29784e-17 -4.93008e-13 0)
(-1.30049e-17 -4.93008e-13 0)
(-1.30246e-17 -4.93008e-13 0)
(-1.30377e-17 -4.93008e-13 0)
(-1.30445e-17 -4.93008e-13 0)
(-1.30452e-17 -4.93008e-13 0)
(-1.30401e-17 -4.93008e-13 0)
(-1.30294e-17 -4.93008e-13 0)
(-1.30132e-17 -4.93008e-13 0)
(-1.29919e-17 -4.93008e-13 0)
(-1.29656e-17 -4.93008e-13 0)
(-1.29346e-17 -4.93008e-13 0)
(-1.2899e-17 -4.93008e-13 0)
(-1.28591e-17 -4.93008e-13 0)
(-1.2815e-17 -4.93008e-13 0)
(-1.2767e-17 -4.93008e-13 0)
(-1.27153e-17 -4.93008e-13 0)
(-1.266e-17 -4.93008e-13 0)
(-1.26013e-17 -4.93008e-13 0)
(-1.25394e-17 -4.93008e-13 0)
(-1.24744e-17 -4.93008e-13 0)
(-1.24066e-17 -4.93008e-13 0)
(-1.23361e-17 -4.93008e-13 0)
(-1.22631e-17 -4.93008e-13 0)
(-1.21876e-17 -4.93008e-13 0)
(-1.211e-17 -4.93008e-13 0)
(-1.20302e-17 -4.93008e-13 0)
(-1.19485e-17 -4.93008e-13 0)
(-1.18649e-17 -4.93008e-13 0)
(-1.17797e-17 -4.93008e-13 0)
(-1.16929e-17 -4.93008e-13 0)
(-1.16039e-17 -4.93008e-13 0)
(-2.6597e-19 -4.9296e-13 0)
(-7.95159e-19 -4.9296e-13 0)
(-1.31846e-18 -4.9296e-13 0)
(-1.83512e-18 -4.9296e-13 0)
(-2.34445e-18 -4.9296e-13 0)
(-2.84579e-18 -4.9296e-13 0)
(-3.33853e-18 -4.9296e-13 0)
(-3.82211e-18 -4.9296e-13 0)
(-4.29601e-18 -4.9296e-13 0)
(-4.75977e-18 -4.9296e-13 0)
(-5.21294e-18 -4.9296e-13 0)
(-5.65515e-18 -4.9296e-13 0)
(-6.08604e-18 -4.9296e-13 0)
(-6.50531e-18 -4.9296e-13 0)
(-6.9127e-18 -4.9296e-13 0)
(-7.30796e-18 -4.9296e-13 0)
(-7.69092e-18 -4.9296e-13 0)
(-8.0614e-18 -4.9296e-13 0)
(-8.41929e-18 -4.9296e-13 0)
(-8.76448e-18 -4.92961e-13 0)
(-9.09692e-18 -4.92961e-13 0)
(-9.41657e-18 -4.92961e-13 0)
(-9.72341e-18 -4.92961e-13 0)
(-1.00175e-17 -4.92961e-13 0)
(-1.02988e-17 -4.92961e-13 0)
(-1.05674e-17 -4.92961e-13 0)
(-1.08235e-17 -4.92961e-13 0)
(-1.1067e-17 -4.92961e-13 0)
(-1.12982e-17 -4.92961e-13 0)
(-1.15172e-17 -4.92961e-13 0)
(-1.17241e-17 -4.92961e-13 0)
(-1.19192e-17 -4.92961e-13 0)
(-1.21025e-17 -4.92961e-13 0)
(-1.22743e-17 -4.92961e-13 0)
(-1.24348e-17 -4.92961e-13 0)
(-1.25842e-17 -4.92961e-13 0)
(-1.27228e-17 -4.92961e-13 0)
(-1.28508e-17 -4.92961e-13 0)
(-1.29684e-17 -4.92961e-13 0)
(-1.30758e-17 -4.92961e-13 0)
(-1.31734e-17 -4.92961e-13 0)
(-1.32614e-17 -4.92961e-13 0)
(-1.334e-17 -4.92961e-13 0)
(-1.34095e-17 -4.92961e-13 0)
(-1.34701e-17 -4.92961e-13 0)
(-1.35222e-17 -4.92961e-13 0)
(-1.3566e-17 -4.92961e-13 0)
(-1.36018e-17 -4.92961e-13 0)
(-1.36298e-17 -4.92961e-13 0)
(-1.36503e-17 -4.92961e-13 0)
(-1.36636e-17 -4.92961e-13 0)
(-1.36699e-17 -4.92961e-13 0)
(-1.36694e-17 -4.92961e-13 0)
(-1.36625e-17 -4.92961e-13 0)
(-1.36494e-17 -4.92961e-13 0)
(-1.36303e-17 -4.92961e-13 0)
(-1.36056e-17 -4.92961e-13 0)
(-1.35753e-17 -4.92961e-13 0)
(-1.35398e-17 -4.92961e-13 0)
(-1.34993e-17 -4.92961e-13 0)
(-1.3454e-17 -4.92962e-13 0)
(-1.34042e-17 -4.92962e-13 0)
(-1.335e-17 -4.92962e-13 0)
(-1.32917e-17 -4.92962e-13 0)
(-1.32295e-17 -4.92962e-13 0)
(-1.31636e-17 -4.92962e-13 0)
(-1.30942e-17 -4.92962e-13 0)
(-1.30215e-17 -4.92962e-13 0)
(-1.29457e-17 -4.92962e-13 0)
(-1.28669e-17 -4.92962e-13 0)
(-1.27853e-17 -4.92962e-13 0)
(-1.27011e-17 -4.92962e-13 0)
(-1.26146e-17 -4.92962e-13 0)
(-1.25257e-17 -4.92962e-13 0)
(-1.24348e-17 -4.92962e-13 0)
(-1.23418e-17 -4.92962e-13 0)
(-1.22471e-17 -4.92962e-13 0)
(-1.21507e-17 -4.92962e-13 0)
(-1.20528e-17 -4.92962e-13 0)
(-1.19534e-17 -4.92962e-13 0)
(-3.00515e-19 -4.92959e-13 0)
(-8.98409e-19 -4.92959e-13 0)
(-1.48957e-18 -4.92959e-13 0)
(-2.0731e-18 -4.92959e-13 0)
(-2.64816e-18 -4.92959e-13 0)
(-3.21398e-18 -4.92959e-13 0)
(-3.76981e-18 -4.92959e-13 0)
(-4.315e-18 -4.9296e-13 0)
(-4.84893e-18 -4.9296e-13 0)
(-5.37102e-18 -4.9296e-13 0)
(-5.88077e-18 -4.9296e-13 0)
(-6.37771e-18 -4.9296e-13 0)
(-6.86143e-18 -4.9296e-13 0)
(-7.33156e-18 -4.9296e-13 0)
(-7.7878e-18 -4.9296e-13 0)
(-8.22987e-18 -4.9296e-13 0)
(-8.65753e-18 -4.9296e-13 0)
(-9.07061e-18 -4.9296e-13 0)
(-9.46894e-18 -4.9296e-13 0)
(-9.85244e-18 -4.9296e-13 0)
(-1.0221e-17 -4.9296e-13 0)
(-1.05746e-17 -4.9296e-13 0)
(-1.09133e-17 -4.9296e-13 0)
(-1.1237e-17 -4.9296e-13 0)
(-1.15459e-17 -4.9296e-13 0)
(-1.18399e-17 -4.9296e-13 0)
(-1.21193e-17 -4.9296e-13 0)
(-1.23841e-17 -4.9296e-13 0)
(-1.26345e-17 -4.9296e-13 0)
(-1.28707e-17 -4.9296e-13 0)
(-1.30928e-17 -4.9296e-13 0)
(-1.33012e-17 -4.9296e-13 0)
(-1.34959e-17 -4.92961e-13 0)
(-1.36773e-17 -4.92961e-13 0)
(-1.38455e-17 -4.92961e-13 0)
(-1.4001e-17 -4.92961e-13 0)
(-1.41439e-17 -4.92961e-13 0)
(-1.42745e-17 -4.92961e-13 0)
(-1.43931e-17 -4.92961e-13 0)
(-1.45001e-17 -4.92961e-13 0)
(-1.45957e-17 -4.92961e-13 0)
(-1.46802e-17 -4.92961e-13 0)
(-1.4754e-17 -4.92961e-13 0)
(-1.48173e-17 -4.92961e-13 0)
(-1.48706e-17 -4.92961e-13 0)
(-1.4914e-17 -4.92961e-13 0)
(-1.4948e-17 -4.92961e-13 0)
(-1.49729e-17 -4.92961e-13 0)
(-1.49889e-17 -4.92961e-13 0)
(-1.49964e-17 -4.92961e-13 0)
(-1.49957e-17 -4.92961e-13 0)
(-1.49871e-17 -4.92961e-13 0)
(-1.49709e-17 -4.92961e-13 0)
(-1.49475e-17 -4.92961e-13 0)
(-1.49171e-17 -4.92961e-13 0)
(-1.488e-17 -4.92961e-13 0)
(-1.48366e-17 -4.92962e-13 0)
(-1.47871e-17 -4.92962e-13 0)
(-1.47317e-17 -4.92962e-13 0)
(-1.46709e-17 -4.92962e-13 0)
(-1.46048e-17 -4.92962e-13 0)
(-1.45336e-17 -4.92962e-13 0)
(-1.44578e-17 -4.92962e-13 0)
(-1.43775e-17 -4.92962e-13 0)
(-1.42929e-17 -4.92962e-13 0)
(-1.42043e-17 -4.92962e-13 0)
(-1.4112e-17 -4.92962e-13 0)
(-1.40161e-17 -4.92962e-13 0)
(-1.3917e-17 -4.92962e-13 0)
(-1.38147e-17 -4.92962e-13 0)
(-1.37095e-17 -4.92962e-13 0)
(-1.36016e-17 -4.92962e-13 0)
(-1.34913e-17 -4.92962e-13 0)
(-1.33786e-17 -4.92962e-13 0)
(-1.32638e-17 -4.92962e-13 0)
(-1.3147e-17 -4.92962e-13 0)
(-1.30285e-17 -4.92962e-13 0)
(-1.29083e-17 -4.92962e-13 0)
(-1.27867e-17 -4.92962e-13 0)
(-1.26638e-17 -4.92962e-13 0)
(-3.56666e-19 -4.92958e-13 0)
(-1.06623e-18 -4.92958e-13 0)
(-1.76768e-18 -4.92959e-13 0)
(-2.45988e-18 -4.92959e-13 0)
(-3.14175e-18 -4.92959e-13 0)
(-3.81231e-18 -4.92959e-13 0)
(-4.47063e-18 -4.92959e-13 0)
(-5.11585e-18 -4.92959e-13 0)
(-5.74718e-18 -4.92959e-13 0)
(-6.36392e-18 -4.92959e-13 0)
(-6.96541e-18 -4.92959e-13 0)
(-7.55106e-18 -4.92959e-13 0)
(-8.12036e-18 -4.92959e-13 0)
(-8.67284e-18 -4.92959e-13 0)
(-9.2081e-18 -4.92959e-13 0)
(-9.72581e-18 -4.92959e-13 0)
(-1.02257e-17 -4.92959e-13 0)
(-1.07075e-17 -4.92959e-13 0)
(-1.1171e-17 -4.92959e-13 0)
(-1.16161e-17 -4.92959e-13 0)
(-1.20428e-17 -4.92959e-13 0)
(-1.2451e-17 -4.92959e-13 0)
(-1.28406e-17 -4.92959e-13 0)
(-1.32118e-17 -4.92959e-13 0)
(-1.35645e-17 -4.9296e-13 0)
(-1.3899e-17 -4.9296e-13 0)
(-1.42154e-17 -4.9296e-13 0)
(-1.45138e-17 -4.9296e-13 0)
(-1.47944e-17 -4.9296e-13 0)
(-1.50575e-17 -4.9296e-13 0)
(-1.53034e-17 -4.9296e-13 0)
(-1.55322e-17 -4.9296e-13 0)
(-1.57444e-17 -4.9296e-13 0)
(-1.59402e-17 -4.9296e-13 0)
(-1.61199e-17 -4.9296e-13 0)
(-1.62839e-17 -4.9296e-13 0)
(-1.64326e-17 -4.9296e-13 0)
(-1.65663e-17 -4.9296e-13 0)
(-1.66854e-17 -4.92961e-13 0)
(-1.67903e-17 -4.92961e-13 0)
(-1.68813e-17 -4.92961e-13 0)
(-1.6959e-17 -4.92961e-13 0)
(-1.70237e-17 -4.92961e-13 0)
(-1.70757e-17 -4.92961e-13 0)
(-1.71156e-17 -4.92961e-13 0)
(-1.71437e-17 -4.92961e-13 0)
(-1.71604e-17 -4.92961e-13 0)
(-1.71661e-17 -4.92961e-13 0)
(-1.71613e-17 -4.92961e-13 0)
(-1.71464e-17 -4.92961e-13 0)
(-1.71217e-17 -4.92961e-13 0)
(-1.70876e-17 -4.92961e-13 0)
(-1.70446e-17 -4.92961e-13 0)
(-1.69931e-17 -4.92962e-13 0)
(-1.69334e-17 -4.92962e-13 0)
(-1.68658e-17 -4.92962e-13 0)
(-1.67908e-17 -4.92962e-13 0)
(-1.67088e-17 -4.92962e-13 0)
(-1.662e-17 -4.92962e-13 0)
(-1.65249e-17 -4.92962e-13 0)
(-1.64237e-17 -4.92962e-13 0)
(-1.63169e-17 -4.92962e-13 0)
(-1.62047e-17 -4.92962e-13 0)
(-1.60874e-17 -4.92962e-13 0)
(-1.59654e-17 -4.92962e-13 0)
(-1.58389e-17 -4.92962e-13 0)
(-1.57083e-17 -4.92962e-13 0)
(-1.55738e-17 -4.92962e-13 0)
(-1.54358e-17 -4.92962e-13 0)
(-1.52944e-17 -4.92962e-13 0)
(-1.51499e-17 -4.92962e-13 0)
(-1.50026e-17 -4.92962e-13 0)
(-1.48527e-17 -4.92962e-13 0)
(-1.47004e-17 -4.92962e-13 0)
(-1.45461e-17 -4.92962e-13 0)
(-1.43898e-17 -4.92962e-13 0)
(-1.42318e-17 -4.92962e-13 0)
(-1.40722e-17 -4.92962e-13 0)
(-1.39114e-17 -4.92962e-13 0)
(-1.37494e-17 -4.92962e-13 0)
(-4.40235e-19 -4.92957e-13 0)
(-1.316e-18 -4.92957e-13 0)
(-2.18158e-18 -4.92957e-13 0)
(-3.03546e-18 -4.92957e-13 0)
(-3.87622e-18 -4.92957e-13 0)
(-4.70255e-18 -4.92957e-13 0)
(-5.51322e-18 -4.92957e-13 0)
(-6.30709e-18 -4.92958e-13 0)
(-7.08312e-18 -4.92958e-13 0)
(-7.84038e-18 -4.92958e-13 0)
(-8.57798e-18 -4.92958e-13 0)
(-9.29517e-18 -4.92958e-13 0)
(-9.99126e-18 -4.92958e-13 0)
(-1.06656e-17 -4.92958e-13 0)
(-1.13178e-17 -4.92958e-13 0)
(-1.19472e-17 -4.92958e-13 0)
(-1.25536e-17 -4.92958e-13 0)
(-1.31367e-17 -4.92958e-13 0)
(-1.36962e-17 -4.92958e-13 0)
(-1.42319e-17 -4.92958e-13 0)
(-1.47438e-17 -4.92958e-13 0)
(-1.52317e-17 -4.92959e-13 0)
(-1.56958e-17 -4.92959e-13 0)
(-1.6136e-17 -4.92959e-13 0)
(-1.65526e-17 -4.92959e-13 0)
(-1.69456e-17 -4.92959e-13 0)
(-1.73152e-17 -4.92959e-13 0)
(-1.76618e-17 -4.92959e-13 0)
(-1.79855e-17 -4.92959e-13 0)
(-1.82867e-17 -4.92959e-13 0)
(-1.85658e-17 -4.9296e-13 0)
(-1.88231e-17 -4.9296e-13 0)
(-1.9059e-17 -4.9296e-13 0)
(-1.9274e-17 -4.9296e-13 0)
(-1.94685e-17 -4.9296e-13 0)
(-1.9643e-17 -4.9296e-13 0)
(-1.97979e-17 -4.9296e-13 0)
(-1.99338e-17 -4.9296e-13 0)
(-2.00512e-17 -4.9296e-13 0)
(-2.01505e-17 -4.9296e-13 0)
(-2.02324e-17 -4.92961e-13 0)
(-2.02974e-17 -4.92961e-13 0)
(-2.03459e-17 -4.92961e-13 0)
(-2.03786e-17 -4.92961e-13 0)
(-2.03961e-17 -4.92961e-13 0)
(-2.03987e-17 -4.92961e-13 0)
(-2.03872e-17 -4.92961e-13 0)
(-2.0362e-17 -4.92961e-13 0)
(-2.03237e-17 -4.92961e-13 0)
(-2.02728e-17 -4.92961e-13 0)
(-2.02099e-17 -4.92961e-13 0)
(-2.01355e-17 -4.92962e-13 0)
(-2.00501e-17 -4.92962e-13 0)
(-1.99543e-17 -4.92962e-13 0)
(-1.98484e-17 -4.92962e-13 0)
(-1.97331e-17 -4.92962e-13 0)
(-1.96089e-17 -4.92962e-13 0)
(-1.94761e-17 -4.92962e-13 0)
(-1.93353e-17 -4.92962e-13 0)
(-1.91869e-17 -4.92962e-13 0)
(-1.90314e-17 -4.92962e-13 0)
(-1.88692e-17 -4.92962e-13 0)
(-1.87007e-17 -4.92962e-13 0)
(-1.85264e-17 -4.92962e-13 0)
(-1.83466e-17 -4.92962e-13 0)
(-1.81618e-17 -4.92962e-13 0)
(-1.79722e-17 -4.92963e-13 0)
(-1.77784e-17 -4.92963e-13 0)
(-1.75806e-17 -4.92963e-13 0)
(-1.73792e-17 -4.92963e-13 0)
(-1.71745e-17 -4.92963e-13 0)
(-1.69668e-17 -4.92963e-13 0)
(-1.67565e-17 -4.92963e-13 0)
(-1.65437e-17 -4.92963e-13 0)
(-1.63289e-17 -4.92963e-13 0)
(-1.61123e-17 -4.92963e-13 0)
(-1.58942e-17 -4.92963e-13 0)
(-1.56748e-17 -4.92963e-13 0)
(-1.54543e-17 -4.92963e-13 0)
(-1.5233e-17 -4.92963e-13 0)
(-5.60085e-19 -4.92956e-13 0)
(-1.67419e-18 -4.92956e-13 0)
(-2.77512e-18 -4.92956e-13 0)
(-3.8608e-18 -4.92956e-13 0)
(-4.9293e-18 -4.92956e-13 0)
(-5.97883e-18 -4.92956e-13 0)
(-7.00772e-18 -4.92956e-13 0)
(-8.01441e-18 -4.92956e-13 0)
(-8.9975e-18 -4.92956e-13 0)
(-9.95569e-18 -4.92956e-13 0)
(-1.08878e-17 -4.92956e-13 0)
(-1.17928e-17 -4.92956e-13 0)
(-1.26698e-17 -4.92957e-13 0)
(-1.35179e-17 -4.92957e-13 0)
(-1.43364e-17 -4.92957e-13 0)
(-1.51247e-17 -4.92957e-13 0)
(-1.58824e-17 -4.92957e-13 0)
(-1.6609e-17 -4.92957e-13 0)
(-1.73042e-17 -4.92957e-13 0)
(-1.79679e-17 -4.92957e-13 0)
(-1.85998e-17 -4.92958e-13 0)
(-1.91999e-17 -4.92958e-13 0)
(-1.97683e-17 -4.92958e-13 0)
(-2.03051e-17 -4.92958e-13 0)
(-2.08104e-17 -4.92958e-13 0)
(-2.12844e-17 -4.92958e-13 0)
(-2.17275e-17 -4.92958e-13 0)
(-2.214e-17 -4.92959e-13 0)
(-2.25223e-17 -4.92959e-13 0)
(-2.28749e-17 -4.92959e-13 0)
(-2.31982e-17 -4.92959e-13 0)
(-2.34927e-17 -4.92959e-13 0)
(-2.37591e-17 -4.92959e-13 0)
(-2.39979e-17 -4.92959e-13 0)
(-2.42098e-17 -4.9296e-13 0)
(-2.43954e-17 -4.9296e-13 0)
(-2.45554e-17 -4.9296e-13 0)
(-2.46904e-17 -4.9296e-13 0)
(-2.48012e-17 -4.9296e-13 0)
(-2.48885e-17 -4.9296e-13 0)
(-2.49531e-17 -4.9296e-13 0)
(-2.49956e-17 -4.92961e-13 0)
(-2.50169e-17 -4.92961e-13 0)
(-2.50176e-17 -4.92961e-13 0)
(-2.49986e-17 -4.92961e-13 0)
(-2.49606e-17 -4.92961e-13 0)
(-2.49043e-17 -4.92961e-13 0)
(-2.48305e-17 -4.92961e-13 0)
(-2.47399e-17 -4.92961e-13 0)
(-2.46333e-17 -4.92962e-13 0)
(-2.45115e-17 -4.92962e-13 0)
(-2.4375e-17 -4.92962e-13 0)
(-2.42247e-17 -4.92962e-13 0)
(-2.40612e-17 -4.92962e-13 0)
(-2.38852e-17 -4.92962e-13 0)
(-2.36975e-17 -4.92962e-13 0)
(-2.34986e-17 -4.92962e-13 0)
(-2.32892e-17 -4.92962e-13 0)
(-2.30699e-17 -4.92962e-13 0)
(-2.28415e-17 -4.92963e-13 0)
(-2.26043e-17 -4.92963e-13 0)
(-2.23592e-17 -4.92963e-13 0)
(-2.21065e-17 -4.92963e-13 0)
(-2.1847e-17 -4.92963e-13 0)
(-2.1581e-17 -4.92963e-13 0)
(-2.13092e-17 -4.92963e-13 0)
(-2.1032e-17 -4.92963e-13 0)
(-2.07499e-17 -4.92963e-13 0)
(-2.04635e-17 -4.92963e-13 0)
(-2.01731e-17 -4.92963e-13 0)
(-1.98792e-17 -4.92963e-13 0)
(-1.95822e-17 -4.92963e-13 0)
(-1.92825e-17 -4.92963e-13 0)
(-1.89806e-17 -4.92964e-13 0)
(-1.86767e-17 -4.92964e-13 0)
(-1.83713e-17 -4.92964e-13 0)
(-1.80646e-17 -4.92964e-13 0)
(-1.77571e-17 -4.92964e-13 0)
(-1.7449e-17 -4.92964e-13 0)
(-1.71406e-17 -4.92964e-13 0)
(-7.29281e-19 -4.92954e-13 0)
(-2.17985e-18 -4.92954e-13 0)
(-3.61298e-18 -4.92954e-13 0)
(-5.02578e-18 -4.92954e-13 0)
(-6.4156e-18 -4.92954e-13 0)
(-7.77994e-18 -4.92954e-13 0)
(-9.11646e-18 -4.92954e-13 0)
(-1.0423e-17 -4.92954e-13 0)
(-1.16977e-17 -4.92954e-13 0)
(-1.29387e-17 -4.92955e-13 0)
(-1.41443e-17 -4.92955e-13 0)
(-1.53132e-17 -4.92955e-13 0)
(-1.6444e-17 -4.92955e-13 0)
(-1.75357e-17 -4.92955e-13 0)
(-1.85872e-17 -4.92955e-13 0)
(-1.95977e-17 -4.92955e-13 0)
(-2.05665e-17 -4.92956e-13 0)
(-2.14932e-17 -4.92956e-13 0)
(-2.23773e-17 -4.92956e-13 0)
(-2.32184e-17 -4.92956e-13 0)
(-2.40165e-17 -4.92956e-13 0)
(-2.47715e-17 -4.92957e-13 0)
(-2.54834e-17 -4.92957e-13 0)
(-2.61525e-17 -4.92957e-13 0)
(-2.67788e-17 -4.92957e-13 0)
(-2.73629e-17 -4.92957e-13 0)
(-2.79051e-17 -4.92958e-13 0)
(-2.84059e-17 -4.92958e-13 0)
(-2.8866e-17 -4.92958e-13 0)
(-2.92858e-17 -4.92958e-13 0)
(-2.96662e-17 -4.92958e-13 0)
(-3.00079e-17 -4.92959e-13 0)
(-3.03116e-17 -4.92959e-13 0)
(-3.05783e-17 -4.92959e-13 0)
(-3.08088e-17 -4.92959e-13 0)
(-3.1004e-17 -4.92959e-13 0)
(-3.1165e-17 -4.9296e-13 0)
(-3.12926e-17 -4.9296e-13 0)
(-3.13878e-17 -4.9296e-13 0)
(-3.14517e-17 -4.9296e-13 0)
(-3.14854e-17 -4.9296e-13 0)
(-3.14898e-17 -4.92961e-13 0)
(-3.1466e-17 -4.92961e-13 0)
(-3.14151e-17 -4.92961e-13 0)
(-3.1338e-17 -4.92961e-13 0)
(-3.1236e-17 -4.92961e-13 0)
(-3.11099e-17 -4.92961e-13 0)
(-3.0961e-17 -4.92962e-13 0)
(-3.07901e-17 -4.92962e-13 0)
(-3.05984e-17 -4.92962e-13 0)
(-3.03868e-17 -4.92962e-13 0)
(-3.01563e-17 -4.92962e-13 0)
(-2.9908e-17 -4.92962e-13 0)
(-2.96428e-17 -4.92963e-13 0)
(-2.93617e-17 -4.92963e-13 0)
(-2.90655e-17 -4.92963e-13 0)
(-2.87553e-17 -4.92963e-13 0)
(-2.84319e-17 -4.92963e-13 0)
(-2.80961e-17 -4.92963e-13 0)
(-2.77488e-17 -4.92963e-13 0)
(-2.7391e-17 -4.92963e-13 0)
(-2.70232e-17 -4.92964e-13 0)
(-2.66464e-17 -4.92964e-13 0)
(-2.62613e-17 -4.92964e-13 0)
(-2.58687e-17 -4.92964e-13 0)
(-2.54691e-17 -4.92964e-13 0)
(-2.50634e-17 -4.92964e-13 0)
(-2.46522e-17 -4.92964e-13 0)
(-2.42361e-17 -4.92964e-13 0)
(-2.38158e-17 -4.92964e-13 0)
(-2.33918e-17 -4.92964e-13 0)
(-2.29647e-17 -4.92964e-13 0)
(-2.2535e-17 -4.92964e-13 0)
(-2.21034e-17 -4.92965e-13 0)
(-2.16701e-17 -4.92965e-13 0)
(-2.12359e-17 -4.92965e-13 0)
(-2.0801e-17 -4.92965e-13 0)
(-2.0366e-17 -4.92965e-13 0)
(-1.99313e-17 -4.92965e-13 0)
(-1.94972e-17 -4.92965e-13 0)
(-9.66817e-19 -4.92952e-13 0)
(-2.88974e-18 -4.92952e-13 0)
(-4.78916e-18 -4.92952e-13 0)
(-6.66106e-18 -4.92952e-13 0)
(-8.50169e-18 -4.92952e-13 0)
(-1.03075e-17 -4.92952e-13 0)
(-1.20753e-17 -4.92952e-13 0)
(-1.38021e-17 -4.92952e-13 0)
(-1.54851e-17 -4.92952e-13 0)
(-1.71217e-17 -4.92952e-13 0)
(-1.87098e-17 -4.92953e-13 0)
(-2.02473e-17 -4.92953e-13 0)
(-2.17324e-17 -4.92953e-13 0)
(-2.31635e-17 -4.92953e-13 0)
(-2.45393e-17 -4.92953e-13 0)
(-2.58586e-17 -4.92954e-13 0)
(-2.71205e-17 -4.92954e-13 0)
(-2.83243e-17 -4.92954e-13 0)
(-2.94693e-17 -4.92954e-13 0)
(-3.05552e-17 -4.92955e-13 0)
(-3.15818e-17 -4.92955e-13 0)
(-3.25491e-17 -4.92955e-13 0)
(-3.3457e-17 -4.92955e-13 0)
(-3.43059e-17 -4.92956e-13 0)
(-3.50962e-17 -4.92956e-13 0)
(-3.58283e-17 -4.92956e-13 0)
(-3.65029e-17 -4.92956e-13 0)
(-3.71207e-17 -4.92957e-13 0)
(-3.76825e-17 -4.92957e-13 0)
(-3.81892e-17 -4.92957e-13 0)
(-3.86419e-17 -4.92958e-13 0)
(-3.90416e-17 -4.92958e-13 0)
(-3.93895e-17 -4.92958e-13 0)
(-3.96868e-17 -4.92958e-13 0)
(-3.99347e-17 -4.92959e-13 0)
(-4.01346e-17 -4.92959e-13 0)
(-4.02878e-17 -4.92959e-13 0)
(-4.03958e-17 -4.9296e-13 0)
(-4.04599e-17 -4.9296e-13 0)
(-4.04816e-17 -4.9296e-13 0)
(-4.04623e-17 -4.9296e-13 0)
(-4.04036e-17 -4.92961e-13 0)
(-4.03069e-17 -4.92961e-13 0)
(-4.01737e-17 -4.92961e-13 0)
(-4.00055e-17 -4.92961e-13 0)
(-3.98039e-17 -4.92962e-13 0)
(-3.95703e-17 -4.92962e-13 0)
(-3.93061e-17 -4.92962e-13 0)
(-3.90129e-17 -4.92962e-13 0)
(-3.8692e-17 -4.92963e-13 0)
(-3.8345e-17 -4.92963e-13 0)
(-3.79732e-17 -4.92963e-13 0)
(-3.75781e-17 -4.92963e-13 0)
(-3.71609e-17 -4.92963e-13 0)
(-3.67231e-17 -4.92964e-13 0)
(-3.62659e-17 -4.92964e-13 0)
(-3.57905e-17 -4.92964e-13 0)
(-3.52984e-17 -4.92964e-13 0)
(-3.47906e-17 -4.92964e-13 0)
(-3.42684e-17 -4.92964e-13 0)
(-3.37329e-17 -4.92965e-13 0)
(-3.31852e-17 -4.92965e-13 0)
(-3.26265e-17 -4.92965e-13 0)
(-3.20577e-17 -4.92965e-13 0)
(-3.14799e-17 -4.92965e-13 0)
(-3.08941e-17 -4.92965e-13 0)
(-3.03011e-17 -4.92965e-13 0)
(-2.9702e-17 -4.92965e-13 0)
(-2.90976e-17 -4.92966e-13 0)
(-2.84888e-17 -4.92966e-13 0)
(-2.78763e-17 -4.92966e-13 0)
(-2.72609e-17 -4.92966e-13 0)
(-2.66434e-17 -4.92966e-13 0)
(-2.60244e-17 -4.92966e-13 0)
(-2.54047e-17 -4.92966e-13 0)
(-2.4785e-17 -4.92966e-13 0)
(-2.41657e-17 -4.92966e-13 0)
(-2.35475e-17 -4.92966e-13 0)
(-2.2931e-17 -4.92966e-13 0)
(-2.23167e-17 -4.92966e-13 0)
(-1.30015e-18 -4.92948e-13 0)
(-3.88587e-18 -4.92948e-13 0)
(-6.43954e-18 -4.92948e-13 0)
(-8.95546e-18 -4.92948e-13 0)
(-1.14283e-17 -4.92949e-13 0)
(-1.38531e-17 -4.92949e-13 0)
(-1.62253e-17 -4.92949e-13 0)
(-1.85406e-17 -4.92949e-13 0)
(-2.07951e-17 -4.92949e-13 0)
(-2.29853e-17 -4.92949e-13 0)
(-2.51079e-17 -4.9295e-13 0)
(-2.71601e-17 -4.9295e-13 0)
(-2.91394e-17 -4.9295e-13 0)
(-3.10435e-17 -4.9295e-13 0)
(-3.28705e-17 -4.92951e-13 0)
(-3.46189e-17 -4.92951e-13 0)
(-3.62872e-17 -4.92951e-13 0)
(-3.78746e-17 -4.92952e-13 0)
(-3.93801e-17 -4.92952e-13 0)
(-4.08032e-17 -4.92952e-13 0)
(-4.21438e-17 -4.92953e-13 0)
(-4.34017e-17 -4.92953e-13 0)
(-4.4577e-17 -4.92954e-13 0)
(-4.56702e-17 -4.92954e-13 0)
(-4.66818e-17 -4.92954e-13 0)
(-4.76126e-17 -4.92955e-13 0)
(-4.84634e-17 -4.92955e-13 0)
(-4.92354e-17 -4.92956e-13 0)
(-4.99296e-17 -4.92956e-13 0)
(-5.05475e-17 -4.92956e-13 0)
(-5.10906e-17 -4.92957e-13 0)
(-5.15602e-17 -4.92957e-13 0)
(-5.19582e-17 -4.92958e-13 0)
(-5.22863e-17 -4.92958e-13 0)
(-5.25462e-17 -4.92958e-13 0)
(-5.274e-17 -4.92959e-13 0)
(-5.28695e-17 -4.92959e-13 0)
(-5.29367e-17 -4.92959e-13 0)
(-5.29437e-17 -4.9296e-13 0)
(-5.28926e-17 -4.9296e-13 0)
(-5.27854e-17 -4.92961e-13 0)
(-5.26244e-17 -4.92961e-13 0)
(-5.24115e-17 -4.92961e-13 0)
(-5.21491e-17 -4.92962e-13 0)
(-5.18391e-17 -4.92962e-13 0)
(-5.14838e-17 -4.92962e-13 0)
(-5.10852e-17 -4.92963e-13 0)
(-5.06455e-17 -4.92963e-13 0)
(-5.01668e-17 -4.92963e-13 0)
(-4.96511e-17 -4.92963e-13 0)
(-4.91004e-17 -4.92964e-13 0)
(-4.85169e-17 -4.92964e-13 0)
(-4.79023e-17 -4.92964e-13 0)
(-4.72588e-17 -4.92965e-13 0)
(-4.65881e-17 -4.92965e-13 0)
(-4.58921e-17 -4.92965e-13 0)
(-4.51727e-17 -4.92965e-13 0)
(-4.44316e-17 -4.92966e-13 0)
(-4.36705e-17 -4.92966e-13 0)
(-4.2891e-17 -4.92966e-13 0)
(-4.20949e-17 -4.92966e-13 0)
(-4.12837e-17 -4.92966e-13 0)
(-4.04588e-17 -4.92967e-13 0)
(-3.96218e-17 -4.92967e-13 0)
(-3.87741e-17 -4.92967e-13 0)
(-3.79171e-17 -4.92967e-13 0)
(-3.7052e-17 -4.92967e-13 0)
(-3.61801e-17 -4.92967e-13 0)
(-3.53028e-17 -4.92967e-13 0)
(-3.4421e-17 -4.92968e-13 0)
(-3.3536e-17 -4.92968e-13 0)
(-3.26488e-17 -4.92968e-13 0)
(-3.17604e-17 -4.92968e-13 0)
(-3.08719e-17 -4.92968e-13 0)
(-2.9984e-17 -4.92968e-13 0)
(-2.90978e-17 -4.92968e-13 0)
(-2.8214e-17 -4.92968e-13 0)
(-2.73335e-17 -4.92968e-13 0)
(-2.6457e-17 -4.92968e-13 0)
(-2.55851e-17 -4.92969e-13 0)
(-1.76887e-18 -4.92944e-13 0)
(-5.28659e-18 -4.92944e-13 0)
(-8.76012e-18 -4.92944e-13 0)
(-1.21814e-17 -4.92944e-13 0)
(-1.55428e-17 -4.92944e-13 0)
(-1.88372e-17 -4.92944e-13 0)
(-2.20582e-17 -4.92945e-13 0)
(-2.51996e-17 -4.92945e-13 0)
(-2.82559e-17 -4.92945e-13 0)
(-3.12221e-17 -4.92945e-13 0)
(-3.40937e-17 -4.92946e-13 0)
(-3.68664e-17 -4.92946e-13 0)
(-3.95368e-17 -4.92947e-13 0)
(-4.21016e-17 -4.92947e-13 0)
(-4.45582e-17 -4.92947e-13 0)
(-4.69043e-17 -4.92948e-13 0)
(-4.91379e-17 -4.92948e-13 0)
(-5.12578e-17 -4.92949e-13 0)
(-5.32626e-17 -4.92949e-13 0)
(-5.51518e-17 -4.9295e-13 0)
(-5.69248e-17 -4.9295e-13 0)
(-5.85818e-17 -4.92951e-13 0)
(-6.01229e-17 -4.92951e-13 0)
(-6.15486e-17 -4.92952e-13 0)
(-6.28599e-17 -4.92952e-13 0)
(-6.40577e-17 -4.92953e-13 0)
(-6.51434e-17 -4.92953e-13 0)
(-6.61186e-17 -4.92954e-13 0)
(-6.69849e-17 -4.92955e-13 0)
(-6.77444e-17 -4.92955e-13 0)
(-6.8399e-17 -4.92956e-13 0)
(-6.89512e-17 -4.92956e-13 0)
(-6.94032e-17 -4.92957e-13 0)
(-6.97577e-17 -4.92957e-13 0)
(-7.00173e-17 -4.92958e-13 0)
(-7.01846e-17 -4.92958e-13 0)
(-7.02626e-17 -4.92959e-13 0)
(-7.02541e-17 -4.92959e-13 0)
(-7.0162e-17 -4.9296e-13 0)
(-6.99895e-17 -4.9296e-13 0)
(-6.97395e-17 -4.92961e-13 0)
(-6.94151e-17 -4.92961e-13 0)
(-6.90193e-17 -4.92962e-13 0)
(-6.85553e-17 -4.92962e-13 0)
(-6.80261e-17 -4.92963e-13 0)
(-6.74349e-17 -4.92963e-13 0)
(-6.67846e-17 -4.92964e-13 0)
(-6.60783e-17 -4.92964e-13 0)
(-6.53191e-17 -4.92965e-13 0)
(-6.45098e-17 -4.92965e-13 0)
(-6.36535e-17 -4.92965e-13 0)
(-6.27529e-17 -4.92966e-13 0)
(-6.18109e-17 -4.92966e-13 0)
(-6.08304e-17 -4.92966e-13 0)
(-5.98139e-17 -4.92967e-13 0)
(-5.87641e-17 -4.92967e-13 0)
(-5.76837e-17 -4.92967e-13 0)
(-5.65751e-17 -4.92968e-13 0)
(-5.54408e-17 -4.92968e-13 0)
(-5.42832e-17 -4.92968e-13 0)
(-5.31045e-17 -4.92969e-13 0)
(-5.1907e-17 -4.92969e-13 0)
(-5.06928e-17 -4.92969e-13 0)
(-4.94641e-17 -4.92969e-13 0)
(-4.82228e-17 -4.9297e-13 0)
(-4.69708e-17 -4.9297e-13 0)
(-4.571e-17 -4.9297e-13 0)
(-4.44422e-17 -4.9297e-13 0)
(-4.31691e-17 -4.9297e-13 0)
(-4.18923e-17 -4.9297e-13 0)
(-4.06133e-17 -4.92971e-13 0)
(-3.93337e-17 -4.92971e-13 0)
(-3.80549e-17 -4.92971e-13 0)
(-3.67781e-17 -4.92971e-13 0)
(-3.55048e-17 -4.92971e-13 0)
(-3.4236e-17 -4.92971e-13 0)
(-3.2973e-17 -4.92971e-13 0)
(-3.17169e-17 -4.92971e-13 0)
(-3.04685e-17 -4.92972e-13 0)
(-2.9229e-17 -4.92972e-13 0)
(-2.43002e-18 -4.92938e-13 0)
(-7.26233e-18 -4.92938e-13 0)
(-1.20332e-17 -4.92938e-13 0)
(-1.67312e-17 -4.92938e-13 0)
(-2.13453e-17 -4.92938e-13 0)
(-2.58656e-17 -4.92939e-13 0)
(-3.02826e-17 -4.92939e-13 0)
(-3.45877e-17 -4.92939e-13 0)
(-3.8773e-17 -4.9294e-13 0)
(-4.28313e-17 -4.9294e-13 0)
(-4.6756e-17 -4.92941e-13 0)
(-5.05413e-17 -4.92941e-13 0)
(-5.4182e-17 -4.92942e-13 0)
(-5.76737e-17 -4.92942e-13 0)
(-6.10124e-17 -4.92943e-13 0)
(-6.41948e-17 -4.92943e-13 0)
(-6.72184e-17 -4.92944e-13 0)
(-7.00809e-17 -4.92945e-13 0)
(-7.27808e-17 -4.92945e-13 0)
(-7.53171e-17 -4.92946e-13 0)
(-7.76892e-17 -4.92947e-13 0)
(-7.98971e-17 -4.92948e-13 0)
(-8.1941e-17 -4.92948e-13 0)
(-8.38219e-17 -4.92949e-13 0)
(-8.55409e-17 -4.9295e-13 0)
(-8.70995e-17 -4.92951e-13 0)
(-8.84997e-17 -4.92951e-13 0)
(-8.97437e-17 -4.92952e-13 0)
(-9.08341e-17 -4.92953e-13 0)
(-9.17736e-17 -4.92954e-13 0)
(-9.25653e-17 -4.92954e-13 0)
(-9.32124e-17 -4.92955e-13 0)
(-9.37186e-17 -4.92956e-13 0)
(-9.40874e-17 -4.92957e-13 0)
(-9.43227e-17 -4.92957e-13 0)
(-9.44284e-17 -4.92958e-13 0)
(-9.44087e-17 -4.92959e-13 0)
(-9.42678e-17 -4.9296e-13 0)
(-9.401e-17 -4.9296e-13 0)
(-9.36395e-17 -4.92961e-13 0)
(-9.3161e-17 -4.92962e-13 0)
(-9.25787e-17 -4.92962e-13 0)
(-9.18972e-17 -4.92963e-13 0)
(-9.1121e-17 -4.92964e-13 0)
(-9.02545e-17 -4.92964e-13 0)
(-8.93023e-17 -4.92965e-13 0)
(-8.82687e-17 -4.92966e-13 0)
(-8.71581e-17 -4.92966e-13 0)
(-8.5975e-17 -4.92967e-13 0)
(-8.47236e-17 -4.92967e-13 0)
(-8.34082e-17 -4.92968e-13 0)
(-8.20329e-17 -4.92968e-13 0)
(-8.06017e-17 -4.92969e-13 0)
(-7.91188e-17 -4.92969e-13 0)
(-7.75881e-17 -4.9297e-13 0)
(-7.60132e-17 -4.9297e-13 0)
(-7.4398e-17 -4.92971e-13 0)
(-7.27462e-17 -4.92971e-13 0)
(-7.10611e-17 -4.92971e-13 0)
(-6.93462e-17 -4.92972e-13 0)
(-6.76048e-17 -4.92972e-13 0)
(-6.58402e-17 -4.92973e-13 0)
(-6.40553e-17 -4.92973e-13 0)
(-6.22531e-17 -4.92973e-13 0)
(-6.04365e-17 -4.92973e-13 0)
(-5.86083e-17 -4.92974e-13 0)
(-5.6771e-17 -4.92974e-13 0)
(-5.49271e-17 -4.92974e-13 0)
(-5.30791e-17 -4.92974e-13 0)
(-5.12293e-17 -4.92975e-13 0)
(-4.93799e-17 -4.92975e-13 0)
(-4.75329e-17 -4.92975e-13 0)
(-4.56902e-17 -4.92975e-13 0)
(-4.38539e-17 -4.92975e-13 0)
(-4.20256e-17 -4.92975e-13 0)
(-4.0207e-17 -4.92976e-13 0)
(-3.83997e-17 -4.92976e-13 0)
(-3.66052e-17 -4.92976e-13 0)
(-3.48249e-17 -4.92976e-13 0)
(-3.306e-17 -4.92976e-13 0)
(-3.36558e-18 -4.92929e-13 0)
(-1.00581e-17 -4.9293e-13 0)
(-1.66647e-17 -4.9293e-13 0)
(-2.31689e-17 -4.9293e-13 0)
(-2.95554e-17 -4.9293e-13 0)
(-3.58095e-17 -4.92931e-13 0)
(-4.1918e-17 -4.92931e-13 0)
(-4.78685e-17 -4.92932e-13 0)
(-5.36495e-17 -4.92932e-13 0)
(-5.92508e-17 -4.92933e-13 0)
(-6.4663e-17 -4.92933e-13 0)
(-6.98777e-17 -4.92934e-13 0)
(-7.48874e-17 -4.92935e-13 0)
(-7.96856e-17 -4.92936e-13 0)
(-8.42668e-17 -4.92936e-13 0)
(-8.86262e-17 -4.92937e-13 0)
(-9.27599e-17 -4.92938e-13 0)
(-9.66647e-17 -4.92939e-13 0)
(-1.00339e-16 -4.9294e-13 0)
(-1.0378e-16 -4.92941e-13 0)
(-1.06987e-16 -4.92942e-13 0)
(-1.09961e-16 -4.92943e-13 0)
(-1.12702e-16 -4.92944e-13 0)
(-1.15211e-16 -4.92945e-13 0)
(-1.17489e-16 -4.92946e-13 0)
(-1.1954e-16 -4.92947e-13 0)
(-1.21365e-16 -4.92949e-13 0)
(-1.22967e-16 -4.9295e-13 0)
(-1.24351e-16 -4.92951e-13 0)
(-1.25521e-16 -4.92952e-13 0)
(-1.2648e-16 -4.92953e-13 0)
(-1.27234e-16 -4.92954e-13 0)
(-1.27788e-16 -4.92955e-13 0)
(-1.28147e-16 -4.92956e-13 0)
(-1.28316e-16 -4.92957e-13 0)
(-1.28302e-16 -4.92958e-13 0)
(-1.2811e-16 -4.92959e-13 0)
(-1.27747e-16 -4.9296e-13 0)
(-1.27218e-16 -4.92961e-13 0)
(-1.26531e-16 -4.92962e-13 0)
(-1.25691e-16 -4.92963e-13 0)
(-1.24705e-16 -4.92964e-13 0)
(-1.2358e-16 -4.92965e-13 0)
(-1.22322e-16 -4.92966e-13 0)
(-1.20938e-16 -4.92967e-13 0)
(-1.19434e-16 -4.92968e-13 0)
(-1.17817e-16 -4.92969e-13 0)
(-1.16093e-16 -4.92969e-13 0)
(-1.14269e-16 -4.9297e-13 0)
(-1.12351e-16 -4.92971e-13 0)
(-1.10344e-16 -4.92972e-13 0)
(-1.08256e-16 -4.92972e-13 0)
(-1.06092e-16 -4.92973e-13 0)
(-1.03859e-16 -4.92974e-13 0)
(-1.01561e-16 -4.92974e-13 0)
(-9.92038e-17 -4.92975e-13 0)
(-9.67938e-17 -4.92975e-13 0)
(-9.43357e-17 -4.92976e-13 0)
(-9.18347e-17 -4.92977e-13 0)
(-8.92958e-17 -4.92977e-13 0)
(-8.67236e-17 -4.92977e-13 0)
(-8.41229e-17 -4.92978e-13 0)
(-8.14981e-17 -4.92978e-13 0)
(-7.88534e-17 -4.92979e-13 0)
(-7.61929e-17 -4.92979e-13 0)
(-7.35206e-17 -4.92979e-13 0)
(-7.08403e-17 -4.9298e-13 0)
(-6.81555e-17 -4.9298e-13 0)
(-6.54696e-17 -4.9298e-13 0)
(-6.2786e-17 -4.92981e-13 0)
(-6.01076e-17 -4.92981e-13 0)
(-5.74376e-17 -4.92981e-13 0)
(-5.47785e-17 -4.92981e-13 0)
(-5.21331e-17 -4.92981e-13 0)
(-4.95038e-17 -4.92982e-13 0)
(-4.6893e-17 -4.92982e-13 0)
(-4.43028e-17 -4.92982e-13 0)
(-4.17352e-17 -4.92982e-13 0)
(-3.91923e-17 -4.92982e-13 0)
(-3.66757e-17 -4.92982e-13 0)
(-4.6927e-18 -4.92918e-13 0)
(-1.40239e-17 -4.92918e-13 0)
(-2.32346e-17 -4.92918e-13 0)
(-3.23013e-17 -4.92918e-13 0)
(-4.1202e-17 -4.92919e-13 0)
(-4.99159e-17 -4.92919e-13 0)
(-5.8424e-17 -4.9292e-13 0)
(-6.67087e-17 -4.92921e-13 0)
(-7.47535e-17 -4.92922e-13 0)
(-8.25437e-17 -4.92922e-13 0)
(-9.00657e-17 -4.92923e-13 0)
(-9.73075e-17 -4.92924e-13 0)
(-1.04258e-16 -4.92925e-13 0)
(-1.10909e-16 -4.92927e-13 0)
(-1.1725e-16 -4.92928e-13 0)
(-1.23276e-16 -4.92929e-13 0)
(-1.28981e-16 -4.9293e-13 0)
(-1.3436e-16 -4.92932e-13 0)
(-1.39409e-16 -4.92933e-13 0)
(-1.44126e-16 -4.92934e-13 0)
(-1.4851e-16 -4.92936e-13 0)
(-1.5256e-16 -4.92937e-13 0)
(-1.56277e-16 -4.92939e-13 0)
(-1.59662e-16 -4.9294e-13 0)
(-1.62718e-16 -4.92942e-13 0)